  436  436    1    2
  0.1072753E+02  0.1533508E-08  0.1638499E-08  0.1906406E-08  0.5000000E-15
  1.000000000000000E-004
  CAR 
 unknown system                          
   1176      8    768
 
  0.0000000E+00  0.0000000E+00  0.0000000E+00  0.8333333E-01
      1        -88.876808      -85.834948   1.000000   1.000000
      2        -85.834973      -85.833507   1.000000   1.000000
      3        -85.833519      -85.811066   1.000000   1.000000
      4        -85.811035      -84.526290   1.000000   1.000000
      5        -55.500887      -52.029479   1.000000   1.000000
      6        -54.870357      -52.025326   1.000000   1.000000
      7        -54.326486      -52.003667   1.000000   1.000000
      8        -52.029498      -51.981321   1.000000   1.000000
      9        -52.025337      -51.976583   1.000000   1.000000
     10        -52.003638      -51.960304   1.000000   1.000000
     11        -51.981335      -51.742803   1.000000   1.000000
     12        -51.976618      -51.738622   1.000000   1.000000
     13        -51.960270      -51.714126   1.000000   1.000000
     14        -51.742822      -50.815287   1.000000   1.000000
     15        -51.738631      -50.675691   1.000000   1.000000
     16        -51.714100      -50.472675   1.000000   1.000000
     17        -20.870438      -20.791968   1.000000   1.000000
     18        -20.791970      -20.788919   1.000000   1.000000
     19        -20.788910      -20.765419   1.000000   1.000000
     20        -20.767495      -20.763765   1.000000   1.000000
     21        -20.765380      -20.662084   1.000000   1.000000
     22        -20.600503      -20.600501   1.000000   1.000000
     23        -20.598418      -20.598428   1.000000   1.000000
     24        -20.576540      -20.576534   1.000000   1.000000
     25        -20.264274      -20.264300   1.000000   1.000000
     26        -20.259839      -20.259838   1.000000   1.000000
     27        -20.240674      -20.240690   1.000000   1.000000
     28        -20.113223      -20.113247   1.000000   1.000000
     29        -20.105719      -20.105719   1.000000   1.000000
     30        -20.093041      -20.090445   1.000000   1.000000
     31        -20.090438      -20.063402   1.000000   1.000000
     32        -20.004839      -19.976836   1.000000   1.000000
     33        -19.303779      -19.303795   1.000000   1.000000
     34        -19.298490      -19.298489   1.000000   1.000000
     35        -19.277959      -19.277963   1.000000   1.000000
     36        -19.227139      -19.227152   1.000000   1.000000
     37        -19.221667      -19.221666   1.000000   1.000000
     38        -19.200624      -19.200625   1.000000   1.000000
     39        -19.175652      -19.144783   1.000000   1.000000
     40        -19.147704      -19.114266   1.000000   1.000000
     41        -17.233170      -17.233193   1.000000   1.000000
     42        -17.230609      -17.230604   1.000000   1.000000
     43        -17.217608      -17.217619   1.000000   1.000000
     44        -17.187495      -17.187343   1.000000   1.000000
     45        -17.178957      -17.178959   1.000000   1.000000
     46        -17.156907      -17.151892   1.000000   1.000000
     47        -17.145206      -17.145016   1.000000   1.000000
     48        -17.107702      -17.102114   1.000000   1.000000
     49        -16.941973      -16.937307   1.000000   1.000000
     50        -16.927550      -16.927241   1.000000   1.000000
     51        -16.918689      -16.913078   1.000000   1.000000
     52        -16.908441      -16.908361   1.000000   1.000000
     53        -16.898435      -16.898363   1.000000   1.000000
     54        -16.891724      -16.891717   1.000000   1.000000
     55        -16.889060      -16.888818   1.000000   1.000000
     56        -16.867743      -16.867699   1.000000   1.000000
     57        -16.169524      -16.169538   1.000000   1.000000
     58        -16.164291      -16.164315   1.000000   1.000000
     59        -16.153898      -16.153926   1.000000   1.000000
     60        -16.133391      -16.133406   1.000000   1.000000
     61        -16.119539      -16.119904   1.000000   1.000000
     62        -16.118141      -16.118328   1.000000   1.000000
     63        -16.113865      -16.113526   1.000000   1.000000
     64        -16.095018      -16.093215   1.000000   1.000000
     65        -16.072541      -16.072538   1.000000   1.000000
     66        -16.061826      -16.061597   1.000000   1.000000
     67        -16.059262      -16.056874   1.000000   1.000000
     68        -16.056560      -16.055243   1.000000   1.000000
     69        -16.046511      -16.043646   1.000000   1.000000
     70        -16.031330      -16.031290   1.000000   1.000000
     71        -16.025392      -16.025386   1.000000   1.000000
     72        -16.011069      -16.011071   1.000000   1.000000
     73        -15.610306      -15.608598   1.000000   1.000000
     74        -15.600025      -15.599453   1.000000   1.000000
     75        -15.596513      -15.595187   1.000000   1.000000
     76        -15.593328      -15.591824   1.000000   1.000000
     77        -15.590193      -15.590169   1.000000   1.000000
     78        -15.580144      -15.579926   1.000000   1.000000
     79        -15.569098      -15.569096   1.000000   1.000000
     80        -15.564159      -15.564014   1.000000   1.000000
     81        -14.919629      -14.919637   1.000000   1.000000
     82        -14.911849      -14.911867   1.000000   1.000000
     83        -14.886602      -14.886602   1.000000   1.000000
     84        -14.865476      -14.865479   1.000000   1.000000
     85        -14.849344      -14.849347   1.000000   1.000000
     86        -14.838134      -14.838088   1.000000   1.000000
     87        -14.828638      -14.828331   1.000000   1.000000
     88        -14.787830      -14.786725   1.000000   1.000000
     89        -14.615252      -14.615419   1.000000   1.000000
     90        -14.597156      -14.597363   1.000000   1.000000
     91        -14.588315      -14.588938   1.000000   1.000000
     92        -14.583485      -14.583643   1.000000   1.000000
     93        -14.573179      -14.573552   1.000000   1.000000
     94        -14.566419      -14.566514   1.000000   1.000000
     95        -14.565773      -14.565875   1.000000   1.000000
     96        -14.549668      -14.549721   1.000000   1.000000
     97        -13.970950      -13.969967   1.000000   1.000000
     98        -13.960592      -13.960448   1.000000   1.000000
     99        -13.948810      -13.945774   1.000000   1.000000
    100        -13.940837      -13.940630   1.000000   1.000000
    101        -13.936236      -13.935448   1.000000   1.000000
    102        -13.933076      -13.931420   1.000000   1.000000
    103        -13.922894      -13.920725   1.000000   1.000000
    104        -13.907085      -13.906637   1.000000   1.000000
    105        -13.288815      -13.279792   1.000000   1.000000
    106        -13.272860      -13.271662   1.000000   1.000000
    107        -13.267588      -13.267557   1.000000   1.000000
    108        -13.259016      -13.247571   1.000000   1.000000
    109        -13.242735      -13.242660   1.000000   1.000000
    110        -13.236786      -13.236744   1.000000   1.000000
    111        -13.229840      -13.229798   1.000000   1.000000
    112        -13.204919      -13.204920   1.000000   1.000000
    113        -12.697149      -12.696844   1.000000   1.000000
    114        -12.692911      -12.692141   1.000000   1.000000
    115        -12.687974      -12.687527   1.000000   1.000000
    116        -12.673132      -12.672425   1.000000   1.000000
    117        -12.624573      -12.624351   1.000000   1.000000
    118        -12.609898      -12.609718   1.000000   1.000000
    119        -12.605910      -12.605746   1.000000   1.000000
    120        -12.597734      -12.596952   1.000000   1.000000
    121        -12.554249      -12.553793   1.000000   1.000000
    122        -12.550177      -12.550175   1.000000   1.000000
    123        -12.517600      -12.517477   1.000000   1.000000
    124        -12.514492      -12.514314   1.000000   1.000000
    125        -12.501869      -12.501846   1.000000   1.000000
    126        -12.494480      -12.494346   1.000000   1.000000
    127        -12.489160      -12.489075   1.000000   1.000000
    128        -12.485056      -12.484924   1.000000   1.000000
    129        -12.475132      -12.474727   1.000000   1.000000
    130        -12.471686      -12.471497   1.000000   1.000000
    131        -12.452169      -12.452063   1.000000   1.000000
    132        -12.443869      -12.443565   1.000000   1.000000
    133        -12.438723      -12.438614   1.000000   1.000000
    134        -12.433863      -12.433762   1.000000   1.000000
    135        -12.431658      -12.431628   1.000000   1.000000
    136        -12.419921      -12.419802   1.000000   1.000000
    137        -12.403041      -12.403018   1.000000   1.000000
    138        -12.394346      -12.393984   1.000000   1.000000
    139        -12.388911      -12.388718   1.000000   1.000000
    140        -12.385988      -12.385852   1.000000   1.000000
    141        -12.292271      -12.291462   1.000000   1.000000
    142        -12.279316      -12.279284   1.000000   1.000000
    143        -12.267236      -12.267228   1.000000   1.000000
    144        -12.262853      -12.262841   1.000000   1.000000
    145        -12.228829      -12.228821   1.000000   1.000000
    146        -12.216113      -12.216128   1.000000   1.000000
    147        -12.200732      -12.200552   1.000000   1.000000
    148        -12.192933      -12.192881   1.000000   1.000000
    149        -12.181344      -12.181294   1.000000   1.000000
    150        -12.176250      -12.175468   1.000000   1.000000
    151        -12.163866      -12.163219   1.000000   1.000000
    152        -12.131763      -12.129163   1.000000   1.000000
    153        -11.988167      -11.988170   1.000000   1.000000
    154        -11.985299      -11.985285   1.000000   1.000000
    155        -11.959587      -11.959570   1.000000   1.000000
    156        -11.941451      -11.941442   1.000000   1.000000
    157        -11.927666      -11.927541   1.000000   1.000000
    158        -11.913120      -11.913106   1.000000   1.000000
    159        -11.881935      -11.875177   1.000000   1.000000
    160        -11.832726      -11.825417   1.000000   1.000000
    161        -11.646941      -11.646967   1.000000   1.000000
    162        -11.629843      -11.629786   1.000000   1.000000
    163        -11.620743      -11.620777   1.000000   1.000000
    164        -11.610015      -11.610001   1.000000   1.000000
    165        -11.608646      -11.608659   1.000000   1.000000
    166        -11.592011      -11.591913   1.000000   1.000000
    167        -11.589586      -11.588507   1.000000   1.000000
    168        -11.578450      -11.578116   1.000000   1.000000
    169        -10.765549      -10.762940   1.000000   1.000000
    170        -10.755650      -10.755576   1.000000   1.000000
    171        -10.745794      -10.745758   1.000000   1.000000
    172        -10.742793      -10.739707   1.000000   1.000000
    173        -10.733030      -10.731172   1.000000   1.000000
    174        -10.731125      -10.719898   1.000000   1.000000
    175        -10.715544      -10.715207   1.000000   1.000000
    176        -10.705802      -10.692599   1.000000   1.000000
    177        -10.636387      -10.632319   1.000000   1.000000
    178        -10.627611      -10.627232   1.000000   1.000000
    179        -10.618004      -10.615267   1.000000   1.000000
    180        -10.602651      -10.601217   1.000000   1.000000
    181        -10.595079      -10.593535   1.000000   1.000000
    182        -10.585365      -10.585127   1.000000   1.000000
    183        -10.578902      -10.578825   1.000000   1.000000
    184        -10.561572      -10.561534   1.000000   1.000000
    185        -10.007206      -10.004355   1.000000   1.000000
    186        -10.000251       -9.999466   1.000000   1.000000
    187         -9.989485       -9.986623   1.000000   1.000000
    188         -9.970588       -9.970113   1.000000   1.000000
    189         -9.957968       -9.953781   1.000000   1.000000
    190         -9.945496       -9.943084   1.000000   1.000000
    191         -9.922224       -9.922092   1.000000   1.000000
    192         -9.907737       -9.907287   1.000000   1.000000
    193         -9.514853       -9.514386   1.000000   1.000000
    194         -9.487448       -9.487267   1.000000   1.000000
    195         -9.478604       -9.477498   1.000000   1.000000
    196         -9.423589       -9.401266   1.000000   1.000000
    197         -9.340884       -9.340855   1.000000   1.000000
    198         -9.332232       -9.330735   1.000000   1.000000
    199         -9.309732       -9.309639   1.000000   1.000000
    200         -9.300812       -9.293037   1.000000   1.000000
    201         -9.170127       -9.170109   1.000000   1.000000
    202         -9.169144       -9.168949   1.000000   1.000000
    203         -9.149303       -9.149131   1.000000   1.000000
    204         -9.136552       -9.136537   1.000000   1.000000
    205         -9.128511       -9.127591   1.000000   1.000000
    206         -9.118726       -9.115541   1.000000   1.000000
    207         -9.108708       -9.100699   1.000000   1.000000
    208         -9.074534       -9.062036   1.000000   1.000000
    209         -8.892480       -8.892230   1.000000   1.000000
    210         -8.885779       -8.885732   1.000000   1.000000
    211         -8.865228       -8.864447   1.000000   1.000000
    212         -8.821768       -8.818885   1.000000   1.000000
    213         -8.812446       -8.800294   1.000000   1.000000
    214         -8.795177       -8.788639   1.000000   1.000000
    215         -8.787950       -8.780336   1.000000   1.000000
    216         -8.766060       -8.758605   1.000000   1.000000
    217         -8.696577       -8.696148   1.000000   1.000000
    218         -8.683623       -8.681938   1.000000   1.000000
    219         -8.660105       -8.658317   1.000000   1.000000
    220         -8.651223       -8.648989   1.000000   1.000000
    221         -8.637084       -8.634373   1.000000   1.000000
    222         -8.608530       -8.607775   1.000000   1.000000
    223         -8.605785       -8.601313   1.000000   1.000000
    224         -8.584632       -8.577270   1.000000   1.000000
    225         -8.345264       -8.341382   1.000000   1.000000
    226         -8.330330       -8.327370   1.000000   1.000000
    227         -8.318715       -8.308874   1.000000   1.000000
    228         -8.308418       -8.306624   1.000000   1.000000
    229         -8.277455       -8.266549   1.000000   1.000000
    230         -8.235639       -8.232064   1.000000   1.000000
    231         -8.222929       -8.218527   1.000000   1.000000
    232         -8.187021       -8.186404   1.000000   1.000000
    233         -7.900727       -7.857997   1.000000   1.000000
    234         -7.870709       -7.852778   1.000000   1.000000
    235         -7.848403       -7.838759   1.000000   1.000000
    236         -7.843902       -7.828418   1.000000   1.000000
    237         -7.813155       -7.809205   1.000000   1.000000
    238         -7.804712       -7.801235   1.000000   1.000000
    239         -7.798871       -7.796203   1.000000   1.000000
    240         -7.792207       -7.786870   1.000000   1.000000
    241         -7.775444       -7.765867   1.000000   1.000000
    242         -7.763426       -7.748281   1.000000   1.000000
    243         -7.746638       -7.742058   1.000000   1.000000
    244         -7.743621       -7.739447   1.000000   1.000000
    245         -7.730355       -7.725829   1.000000   1.000000
    246         -7.727338       -7.716697   1.000000   1.000000
    247         -7.712728       -7.709265   1.000000   1.000000
    248         -7.701776       -7.694650   1.000000   1.000000
    249         -7.403587       -7.403164   1.000000   1.000000
    250         -7.375899       -7.375265   1.000000   1.000000
    251         -7.375798       -7.373810   1.000000   1.000000
    252         -7.360733       -7.357724   1.000000   1.000000
    253         -7.350058       -7.348949   1.000000   1.000000
    254         -7.338164       -7.333247   1.000000   1.000000
    255         -7.319858       -7.309575   1.000000   1.000000
    256         -7.303380       -7.289949   1.000000   1.000000
    257         -7.127689       -7.115072   1.000000   1.000000
    258         -7.108158       -7.098708   1.000000   1.000000
    259         -7.098713       -7.083157   1.000000   1.000000
    260         -7.074890       -7.058711   1.000000   1.000000
    261         -7.041519       -7.039533   1.000000   1.000000
    262         -7.036244       -7.024043   1.000000   1.000000
    263         -7.024396       -7.021460   1.000000   1.000000
    264         -6.993899       -6.992349   1.000000   1.000000
    265         -6.992236       -6.985541   1.000000   1.000000
    266         -6.983672       -6.969007   1.000000   1.000000
    267         -6.971001       -6.961969   1.000000   1.000000
    268         -6.964826       -6.959586   1.000000   1.000000
    269         -6.959602       -6.949369   1.000000   1.000000
    270         -6.948500       -6.942661   1.000000   1.000000
    271         -6.946333       -6.940202   1.000000   1.000000
    272         -6.940388       -6.932641   1.000000   1.000000
    273         -6.932231       -6.921489   1.000000   1.000000
    274         -6.920064       -6.916096   1.000000   1.000000
    275         -6.912796       -6.897165   1.000000   1.000000
    276         -6.864495       -6.845811   1.000000   1.000000
    277         -6.842382       -6.833214   1.000000   1.000000
    278         -6.832752       -6.827998   1.000000   1.000000
    279         -6.829216       -6.821088   1.000000   1.000000
    280         -6.818149       -6.795282   1.000000   1.000000
    281         -6.804260       -6.787389   1.000000   1.000000
    282         -6.786113       -6.765386   1.000000   1.000000
    283         -6.765173       -6.759601   1.000000   1.000000
    284         -6.751375       -6.721812   1.000000   1.000000
    285         -6.703997       -6.700311   1.000000   1.000000
    286         -6.698768       -6.689474   1.000000   1.000000
    287         -6.681798       -6.680341   1.000000   1.000000
    288         -6.672760       -6.670510   1.000000   1.000000
    289         -6.660684       -6.657127   1.000000   1.000000
    290         -6.628102       -6.625870   1.000000   1.000000
    291         -6.611005       -6.607024   1.000000   1.000000
    292         -6.592547       -6.589686   1.000000   1.000000
    293         -6.586925       -6.565659   1.000000   1.000000
    294         -6.538731       -6.537493   1.000000   1.000000
    295         -6.527283       -6.524916   1.000000   1.000000
    296         -6.513163       -6.512095   1.000000   1.000000
    297         -6.503937       -6.503167   1.000000   1.000000
    298         -6.502201       -6.498675   1.000000   1.000000
    299         -6.484484       -6.481500   1.000000   1.000000
    300         -6.451505       -6.451026   1.000000   1.000000
    301         -6.414311       -6.413955   1.000000   1.000000
    302         -6.407016       -6.406412   1.000000   1.000000
    303         -6.401183       -6.399664   1.000000   1.000000
    304         -6.386591       -6.385412   1.000000   1.000000
    305         -6.362034       -6.361640   1.000000   1.000000
    306         -6.350783       -6.349743   1.000000   1.000000
    307         -6.326915       -6.326504   1.000000   1.000000
    308         -6.313275       -6.311446   1.000000   1.000000
    309         -6.307793       -6.307059   1.000000   1.000000
    310         -6.303423       -6.301161   1.000000   1.000000
    311         -6.295262       -6.293165   1.000000   1.000000
    312         -6.290299       -6.290028   1.000000   1.000000
    313         -6.286789       -6.284519   1.000000   1.000000
    314         -6.275507       -6.272118   1.000000   1.000000
    315         -6.257345       -6.256242   1.000000   1.000000
    316         -6.251177       -6.245736   1.000000   1.000000
    317         -6.243651       -6.242577   1.000000   1.000000
    318         -6.238441       -6.234652   1.000000   1.000000
    319         -6.228522       -6.222924   1.000000   1.000000
    320         -6.224007       -6.214427   1.000000   1.000000
    321         -6.207885       -6.206416   1.000000   1.000000
    322         -6.196892       -6.190850   1.000000   1.000000
    323         -6.188564       -6.186226   1.000000   1.000000
    324         -6.173693       -6.171706   1.000000   1.000000
    325         -6.170319       -6.167008   1.000000   1.000000
    326         -6.152253       -6.145333   1.000000   1.000000
    327         -6.138914       -6.135934   1.000000   1.000000
    328         -6.134691       -6.129664   1.000000   1.000000
    329         -6.121383       -6.120750   1.000000   1.000000
    330         -6.119881       -6.117167   1.000000   1.000000
    331         -6.106169       -6.104746   1.000000   1.000000
    332         -6.102513       -6.098341   1.000000   1.000000
    333         -6.089250       -6.087978   1.000000   1.000000
    334         -6.086872       -6.084120   1.000000   1.000000
    335         -6.071807       -6.066204   1.000000   1.000000
    336         -6.066382       -6.065573   1.000000   1.000000
    337         -6.064204       -6.059937   1.000000   1.000000
    338         -6.056475       -6.051620   1.000000   1.000000
    339         -6.051757       -6.037197   1.000000   1.000000
    340         -6.038728       -6.032154   1.000000   1.000000
    341         -6.028090       -6.024513   1.000000   1.000000
    342         -6.026380       -6.012586   1.000000   1.000000
    343         -6.012053       -5.970508   1.000000   1.000000
    344         -5.983586       -5.921939   1.000000   1.000000
    345         -5.888648       -5.872509   1.000000   1.000000
    346         -5.863293       -5.859298   1.000000   1.000000
    347         -5.851296       -5.841453   1.000000   1.000000
    348         -5.845446       -5.831391   1.000000   1.000000
    349         -5.787042       -5.777468   1.000000   1.000000
    350         -5.773902       -5.772514   1.000000   1.000000
    351         -5.770649       -5.768496   1.000000   1.000000
    352         -5.757168       -5.753430   1.000000   1.000000
    353         -5.740844       -5.739930   1.000000   1.000000
    354         -5.738150       -5.733921   1.000000   1.000000
    355         -5.677943       -5.675930   1.000000   1.000000
    356         -5.657841       -5.655821   1.000000   1.000000
    357         -5.618707       -5.609293   1.000000   1.000000
    358         -5.580115       -5.577672   1.000000   1.000000
    359         -5.550245       -5.549314   1.000000   1.000000
    360         -5.540214       -5.539591   1.000000   1.000000
    361         -5.441665       -5.423349   1.000000   1.000000
    362         -5.423299       -5.390468   1.000000   1.000000
    363         -5.395260       -5.380262   1.000000   1.000000
    364         -5.385909       -5.360704   1.000000   1.000000
    365         -5.368261       -5.348408   1.000000   1.000000
    366         -5.345603       -5.321430   1.000000   1.000000
    367         -5.329213       -5.303293   1.000000   1.000000
    368         -5.301895       -5.297683   1.000000   1.000000
    369         -5.291671       -5.287075   1.000000   1.000000
    370         -5.288699       -5.276430   1.000000   1.000000
    371         -5.273528       -5.267883   1.000000   1.000000
    372         -5.258411       -5.251370   1.000000   1.000000
    373         -5.242661       -5.231766   1.000000   1.000000
    374         -5.233102       -5.219654   1.000000   1.000000
    375         -5.224367       -5.218612   1.000000   1.000000
    376         -5.219010       -5.207155   1.000000   1.000000
    377         -5.209275       -5.201665   1.000000   1.000000
    378         -5.200051       -5.198513   1.000000   1.000000
    379         -5.187137       -5.180775   1.000000   1.000000
    380         -5.170945       -5.169771   1.000000   1.000000
    381         -5.159141       -5.157980   1.000000   1.000000
    382         -5.143936       -5.142008   1.000000   1.000000
    383         -5.123579       -5.122045   1.000000   1.000000
    384         -5.119817       -5.111404   1.000000   1.000000
    385         -5.110022       -5.106400   1.000000   1.000000
    386         -5.092464       -5.087731   1.000000   1.000000
    387         -5.083062       -5.081026   1.000000   1.000000
    388         -5.074437       -5.073219   1.000000   1.000000
    389         -5.072795       -5.068126   1.000000   1.000000
    390         -5.060159       -5.052709   1.000000   1.000000
    391         -5.049854       -5.043454   1.000000   1.000000
    392         -5.017839       -5.012453   1.000000   1.000000
    393         -4.920416       -4.903384   1.000000   1.000000
    394         -4.904299       -4.892188   1.000000   1.000000
    395         -4.882200       -4.872480   1.000000   1.000000
    396         -4.869150       -4.865233   1.000000   1.000000
    397         -4.847747       -4.844889   1.000000   1.000000
    398         -4.838881       -4.830847   1.000000   1.000000
    399         -4.827202       -4.808138   1.000000   1.000000
    400         -4.801278       -4.799559   1.000000   1.000000
    401         -4.800243       -4.789317   1.000000   1.000000
    402         -4.789367       -4.786273   1.000000   1.000000
    403         -4.781999       -4.770857   1.000000   1.000000
    404         -4.771897       -4.759191   1.000000   1.000000
    405         -4.759071       -4.750909   1.000000   1.000000
    406         -4.752669       -4.744168   1.000000   1.000000
    407         -4.739703       -4.735978   1.000000   1.000000
    408         -4.737208       -4.729996   1.000000   1.000000
    409         -4.733212       -4.721384   1.000000   1.000000
    410         -4.718417       -4.713136   1.000000   1.000000
    411         -4.714992       -4.706526   1.000000   1.000000
    412         -4.702231       -4.689488   1.000000   1.000000
    413         -4.694892       -4.682000   1.000000   1.000000
    414         -4.683404       -4.679764   1.000000   1.000000
    415         -4.681534       -4.671337   1.000000   1.000000
    416         -4.669241       -4.665229   1.000000   1.000000
    417         -4.662252       -4.660084   1.000000   1.000000
    418         -4.642248       -4.632559   1.000000   1.000000
    419         -4.634299       -4.619542   1.000000   1.000000
    420         -4.613754       -4.609096   1.000000   1.000000
    421         -4.610374       -4.601428   1.000000   1.000000
    422         -4.599100       -4.595476   1.000000   1.000000
    423         -4.595858       -4.579038   1.000000   1.000000
    424         -4.581077       -4.574756   1.000000   1.000000
    425         -4.576476       -4.568418   1.000000   1.000000
    426         -4.569801       -4.567459   1.000000   1.000000
    427         -4.567376       -4.562704   1.000000   1.000000
    428         -4.548658       -4.547684   1.000000   1.000000
    429         -4.538458       -4.533101   1.000000   1.000000
    430         -4.528729       -4.523465   1.000000   1.000000
    431         -4.520711       -4.514251   1.000000   1.000000
    432         -4.518259       -4.506390   1.000000   1.000000
    433         -4.505612       -4.496923   1.000000   1.000000
    434         -4.493212       -4.482605   1.000000   1.000000
    435         -4.475638       -4.469326   1.000000   1.000000
    436         -4.451127       -4.443536   1.000000   1.000000
    437         -4.438201       -4.436487   1.000000   1.000000
    438         -4.405331       -4.397419   1.000000   1.000000
    439         -4.387935       -4.385589   1.000000   1.000000
    440         -4.366436       -4.358885   1.000000   1.000000
    441         -4.351129       -4.350508   1.000000   1.000000
    442         -4.339837       -4.337531   1.000000   1.000000
    443         -4.337997       -4.329718   1.000000   1.000000
    444         -4.322669       -4.320738   1.000000   1.000000
    445         -4.310534       -4.299030   1.000000   1.000000
    446         -4.298518       -4.295860   1.000000   1.000000
    447         -4.295776       -4.291272   1.000000   1.000000
    448         -4.290918       -4.273214   1.000000   1.000000
    449         -4.276521       -4.232467   1.000000   1.000000
    450         -4.234749       -4.220793   1.000000   1.000000
    451         -4.223376       -4.202391   1.000000   1.000000
    452         -4.210447       -4.191086   1.000000   1.000000
    453         -4.192321       -4.181218   1.000000   1.000000
    454         -4.180375       -4.173701   1.000000   1.000000
    455         -4.174533       -4.141957   1.000000   1.000000
    456         -4.144252       -4.131975   1.000000   1.000000
    457         -4.137541       -4.100297   1.000000   1.000000
    458         -4.103776       -4.093302   1.000000   1.000000
    459         -4.096041       -4.069645   1.000000   1.000000
    460         -4.081818       -3.979076   1.000000   1.000000
    461         -4.011180       -3.951735   1.000000   1.000000
    462         -3.997666       -3.933066   1.000000   1.000000
    463         -3.976185       -3.915347   1.000000   1.000000
    464         -3.922600       -3.901605   1.000000   1.000000