  436  436    1    2
  0.1077787E+02  0.1557133E-08  0.1632193E-08  0.1893280E-08  0.5000000E-15
  1.000000000000000E-004
  CAR 
 unknown system                          
   1176      8    768
 
  0.0000000E+00  0.0000000E+00  0.0000000E+00  0.8333333E-01
      1        -88.859468      -84.512296   1.000000   1.000000
      2        -88.859462      -84.512290   1.000000   1.000000
      3        -88.859436      -84.512264   1.000000   1.000000
      4        -88.859433      -84.512262   1.000000   1.000000
      5        -55.493594      -50.805193   1.000000   1.000000
      6        -55.493589      -50.805188   1.000000   1.000000
      7        -55.493554      -50.805158   1.000000   1.000000
      8        -55.493549      -50.805149   1.000000   1.000000
      9        -54.851249      -50.661487   1.000000   1.000000
     10        -54.851237      -50.661475   1.000000   1.000000
     11        -54.851208      -50.661449   1.000000   1.000000
     12        -54.851206      -50.661445   1.000000   1.000000
     13        -54.301445      -50.455173   1.000000   1.000000
     14        -54.301411      -50.455142   1.000000   1.000000
     15        -54.301407      -50.455137   1.000000   1.000000
     16        -54.301381      -50.455112   1.000000   1.000000
     17        -20.861009      -20.754576   1.000000   1.000000
     18        -20.860961      -20.754510   1.000000   1.000000
     19        -20.860831      -20.754354   1.000000   1.000000
     20        -20.860795      -20.754306   1.000000   1.000000
     21        -20.745446      -20.642405   1.000000   1.000000
     22        -20.745434      -20.642395   1.000000   1.000000
     23        -20.745410      -20.642364   1.000000   1.000000
     24        -20.745398      -20.642354   1.000000   1.000000
     25        -20.099393      -20.070015   1.000000   1.000000
     26        -20.098396      -20.069052   1.000000   1.000000
     27        -20.096852      -20.067422   1.000000   1.000000
     28        -20.096520      -20.067138   1.000000   1.000000
     29        -20.009744      -19.981941   1.000000   1.000000
     30        -20.008681      -19.980844   1.000000   1.000000
     31        -20.006503      -19.978601   1.000000   1.000000
     32        -20.006256      -19.978343   1.000000   1.000000
     33        -19.168670      -19.137747   1.000000   1.000000
     34        -19.166969      -19.135868   1.000000   1.000000
     35        -19.166225      -19.135262   1.000000   1.000000
     36        -19.164379      -19.133197   1.000000   1.000000
     37        -19.141854      -19.108359   1.000000   1.000000
     38        -19.140721      -19.107178   1.000000   1.000000
     39        -19.139816      -19.106495   1.000000   1.000000
     40        -19.138350      -19.104923   1.000000   1.000000
     41        -17.164183      -17.159258   1.000000   1.000000
     42        -17.163310      -17.158540   1.000000   1.000000
     43        -17.162312      -17.157138   1.000000   1.000000
     44        -17.161243      -17.156059   1.000000   1.000000
     45        -17.128165      -17.122224   1.000000   1.000000
     46        -17.127797      -17.121739   1.000000   1.000000
     47        -17.109358      -17.103452   1.000000   1.000000
     48        -17.107204      -17.101347   1.000000   1.000000
     49        -16.951936      -16.946990   1.000000   1.000000
     50        -16.945263      -16.940251   1.000000   1.000000
     51        -16.940983      -16.935974   1.000000   1.000000
     52        -16.935865      -16.930811   1.000000   1.000000
     53        -16.913954      -16.908115   1.000000   1.000000
     54        -16.912725      -16.906734   1.000000   1.000000
     55        -16.912618      -16.906706   1.000000   1.000000
     56        -16.907341      -16.901308   1.000000   1.000000
     57        -16.133698      -16.134508   1.000000   1.000000
     58        -16.130028      -16.130892   1.000000   1.000000
     59        -16.125971      -16.126717   1.000000   1.000000
     60        -16.124521      -16.125274   1.000000   1.000000
     61        -16.118167      -16.116023   1.000000   1.000000
     62        -16.114560      -16.112586   1.000000   1.000000
     63        -16.105602      -16.102853   1.000000   1.000000
     64        -16.102587      -16.099995   1.000000   1.000000
     65        -16.078306      -16.074217   1.000000   1.000000
     66        -16.074458      -16.070511   1.000000   1.000000
     67        -16.072993      -16.068797   1.000000   1.000000
     68        -16.071806      -16.067663   1.000000   1.000000
     69        -16.063938      -16.062153   1.000000   1.000000
     70        -16.062125      -16.059973   1.000000   1.000000
     71        -16.052914      -16.050431   1.000000   1.000000
     72        -16.052483      -16.049749   1.000000   1.000000
     73        -15.621015      -15.618730   1.000000   1.000000
     74        -15.620008      -15.617682   1.000000   1.000000
     75        -15.614075      -15.611767   1.000000   1.000000
     76        -15.613033      -15.610394   1.000000   1.000000
     77        -15.596469      -15.593220   1.000000   1.000000
     78        -15.594189      -15.591053   1.000000   1.000000
     79        -15.593981      -15.591029   1.000000   1.000000
     80        -15.592727      -15.589507   1.000000   1.000000
     81        -14.857951      -14.857779   1.000000   1.000000
     82        -14.851262      -14.851261   1.000000   1.000000
     83        -14.842415      -14.842088   1.000000   1.000000
     84        -14.830335      -14.830258   1.000000   1.000000
     85        -14.805023      -14.803778   1.000000   1.000000
     86        -14.796261      -14.795160   1.000000   1.000000
     87        -14.794595      -14.793463   1.000000   1.000000
     88        -14.792706      -14.791890   1.000000   1.000000
     89        -14.609240      -14.610785   1.000000   1.000000
     90        -14.594051      -14.595598   1.000000   1.000000
     91        -14.588792      -14.590395   1.000000   1.000000
     92        -14.576866      -14.578426   1.000000   1.000000
     93        -14.567811      -14.567447   1.000000   1.000000
     94        -14.565538      -14.565159   1.000000   1.000000
     95        -14.563204      -14.562813   1.000000   1.000000
     96        -14.561203      -14.560847   1.000000   1.000000
     97        -13.969283      -13.964704   1.000000   1.000000
     98        -13.963627      -13.959015   1.000000   1.000000
     99        -13.952675      -13.948462   1.000000   1.000000
    100        -13.946945      -13.942705   1.000000   1.000000
    101        -13.937409      -13.932203   1.000000   1.000000
    102        -13.931921      -13.926572   1.000000   1.000000
    103        -13.920399      -13.915156   1.000000   1.000000
    104        -13.917867      -13.912762   1.000000   1.000000
    105        -13.294724      -13.284486   1.000000   1.000000
    106        -13.290634      -13.280473   1.000000   1.000000
    107        -13.286738      -13.276561   1.000000   1.000000
    108        -13.285867      -13.275608   1.000000   1.000000
    109        -13.258873      -13.247351   1.000000   1.000000
    110        -13.257339      -13.245815   1.000000   1.000000
    111        -13.256624      -13.244928   1.000000   1.000000
    112        -13.255242      -13.243677   1.000000   1.000000
    113        -12.722127      -12.720109   1.000000   1.000000
    114        -12.716984      -12.715076   1.000000   1.000000
    115        -12.714286      -12.712488   1.000000   1.000000
    116        -12.703702      -12.701814   1.000000   1.000000
    117        -12.642753      -12.640839   1.000000   1.000000
    118        -12.628263      -12.626256   1.000000   1.000000
    119        -12.624796      -12.623009   1.000000   1.000000
    120        -12.619080      -12.617401   1.000000   1.000000
    121        -12.581604      -12.581028   1.000000   1.000000
    122        -12.578733      -12.578222   1.000000   1.000000
    123        -12.550596      -12.550028   1.000000   1.000000
    124        -12.550227      -12.549728   1.000000   1.000000
    125        -12.536811      -12.536339   1.000000   1.000000
    126        -12.521893      -12.521320   1.000000   1.000000
    127        -12.506993      -12.506307   1.000000   1.000000
    128        -12.501484      -12.500924   1.000000   1.000000
    129        -12.495669      -12.494992   1.000000   1.000000
    130        -12.489053      -12.488317   1.000000   1.000000
    131        -12.488052      -12.487309   1.000000   1.000000
    132        -12.481457      -12.480953   1.000000   1.000000
    133        -12.467727      -12.467126   1.000000   1.000000
    134        -12.462809      -12.462170   1.000000   1.000000
    135        -12.462030      -12.461354   1.000000   1.000000
    136        -12.459397      -12.458778   1.000000   1.000000
    137        -12.417340      -12.416544   1.000000   1.000000
    138        -12.415764      -12.414906   1.000000   1.000000
    139        -12.409046      -12.408292   1.000000   1.000000
    140        -12.408533      -12.407728   1.000000   1.000000
    141        -12.317803      -12.316915   1.000000   1.000000
    142        -12.312930      -12.312103   1.000000   1.000000
    143        -12.310787      -12.309976   1.000000   1.000000
    144        -12.305573      -12.304727   1.000000   1.000000
    145        -12.201379      -12.199784   1.000000   1.000000
    146        -12.195412      -12.193781   1.000000   1.000000
    147        -12.187336      -12.186057   1.000000   1.000000
    148        -12.178336      -12.176927   1.000000   1.000000
    149        -12.149263      -12.146283   1.000000   1.000000
    150        -12.137283      -12.134789   1.000000   1.000000
    151        -12.132952      -12.129943   1.000000   1.000000
    152        -12.129734      -12.127340   1.000000   1.000000
    153        -11.904700      -11.897918   1.000000   1.000000
    154        -11.904462      -11.897869   1.000000   1.000000
    155        -11.892055      -11.885018   1.000000   1.000000
    156        -11.882187      -11.875086   1.000000   1.000000
    157        -11.849711      -11.842156   1.000000   1.000000
    158        -11.840062      -11.832907   1.000000   1.000000
    159        -11.839288      -11.831764   1.000000   1.000000
    160        -11.835834      -11.828541   1.000000   1.000000
    161        -11.633730      -11.634156   1.000000   1.000000
    162        -11.631607      -11.631624   1.000000   1.000000
    163        -11.620665      -11.621071   1.000000   1.000000
    164        -11.619927      -11.619888   1.000000   1.000000
    165        -11.595280      -11.593642   1.000000   1.000000
    166        -11.594486      -11.592465   1.000000   1.000000
    167        -11.590552      -11.588611   1.000000   1.000000
    168        -11.586664      -11.584917   1.000000   1.000000
    169        -10.761062      -10.743953   1.000000   1.000000
    170        -10.759676      -10.742119   1.000000   1.000000
    171        -10.734177      -10.715918   1.000000   1.000000
    172        -10.726531      -10.712226   1.000000   1.000000
    173        -10.725549      -10.708240   1.000000   1.000000
    174        -10.715174      -10.701708   1.000000   1.000000
    175        -10.693359      -10.676700   1.000000   1.000000
    176        -10.692929      -10.676253   1.000000   1.000000
    177        -10.639101      -10.633330   1.000000   1.000000
    178        -10.635881      -10.629686   1.000000   1.000000
    179        -10.631438      -10.627914   1.000000   1.000000
    180        -10.628172      -10.623736   1.000000   1.000000
    181        -10.619103      -10.614098   1.000000   1.000000
    182        -10.611822      -10.605343   1.000000   1.000000
    183        -10.598458      -10.594130   1.000000   1.000000
    184        -10.597402      -10.593016   1.000000   1.000000
    185        -10.015657      -10.008543   1.000000   1.000000
    186        -10.007825      -10.000316   1.000000   1.000000
    187        -10.003716       -9.996770   1.000000   1.000000
    188         -9.987011       -9.978384   1.000000   1.000000
    189         -9.966104       -9.960165   1.000000   1.000000
    190         -9.962418       -9.955645   1.000000   1.000000
    191         -9.954003       -9.947393   1.000000   1.000000
    192         -9.953446       -9.946947   1.000000   1.000000
    193         -9.473436       -9.449158   1.000000   1.000000
    194         -9.449908       -9.428116   1.000000   1.000000
    195         -9.430380       -9.406849   1.000000   1.000000
    196         -9.404394       -9.381169   1.000000   1.000000
    197         -9.341908       -9.331782   1.000000   1.000000
    198         -9.321302       -9.312273   1.000000   1.000000
    199         -9.313330       -9.302663   1.000000   1.000000
    200         -9.294861       -9.286402   1.000000   1.000000
    201         -9.138007       -9.126243   1.000000   1.000000
    202         -9.132470       -9.120969   1.000000   1.000000
    203         -9.127621       -9.116343   1.000000   1.000000
    204         -9.121164       -9.109295   1.000000   1.000000
    205         -9.088820       -9.076192   1.000000   1.000000
    206         -9.081801       -9.068639   1.000000   1.000000
    207         -9.078457       -9.065744   1.000000   1.000000
    208         -9.067641       -9.054545   1.000000   1.000000
    209         -8.834971       -8.812780   1.000000   1.000000
    210         -8.826961       -8.802822   1.000000   1.000000
    211         -8.820206       -8.802264   1.000000   1.000000
    212         -8.811580       -8.796958   1.000000   1.000000
    213         -8.803796       -8.785344   1.000000   1.000000
    214         -8.795606       -8.774478   1.000000   1.000000
    215         -8.780741       -8.765068   1.000000   1.000000
    216         -8.758057       -8.740062   1.000000   1.000000
    217         -8.688093       -8.677440   1.000000   1.000000
    218         -8.660860       -8.651655   1.000000   1.000000
    219         -8.660422       -8.649828   1.000000   1.000000
    220         -8.653212       -8.643960   1.000000   1.000000
    221         -8.610237       -8.599261   1.000000   1.000000
    222         -8.599009       -8.587996   1.000000   1.000000
    223         -8.589935       -8.579384   1.000000   1.000000
    224         -8.581381       -8.571304   1.000000   1.000000
    225         -8.357200       -8.339161   1.000000   1.000000
    226         -8.339738       -8.320458   1.000000   1.000000
    227         -8.332843       -8.312330   1.000000   1.000000
    228         -8.317647       -8.300145   1.000000   1.000000
    229         -8.303579       -8.283412   1.000000   1.000000
    230         -8.268072       -8.250521   1.000000   1.000000
    231         -8.262697       -8.243806   1.000000   1.000000
    232         -8.236929       -8.215977   1.000000   1.000000
    233         -7.913699       -7.859728   1.000000   1.000000
    234         -7.913016       -7.858469   1.000000   1.000000
    235         -7.901492       -7.846532   1.000000   1.000000
    236         -7.897585       -7.840895   1.000000   1.000000
    237         -7.852561       -7.808528   1.000000   1.000000
    238         -7.836139       -7.796872   1.000000   1.000000
    239         -7.821329       -7.785639   1.000000   1.000000
    240         -7.803195       -7.767921   1.000000   1.000000
    241         -7.801488       -7.761398   1.000000   1.000000
    242         -7.789598       -7.757734   1.000000   1.000000
    243         -7.780059       -7.747397   1.000000   1.000000
    244         -7.778028       -7.727514   1.000000   1.000000
    245         -7.752653       -7.726527   1.000000   1.000000
    246         -7.746296       -7.723452   1.000000   1.000000
    247         -7.741400       -7.719878   1.000000   1.000000
    248         -7.724245       -7.711453   1.000000   1.000000
    249         -7.381552       -7.363837   1.000000   1.000000
    250         -7.371349       -7.356238   1.000000   1.000000
    251         -7.365505       -7.350810   1.000000   1.000000
    252         -7.362651       -7.344252   1.000000   1.000000
    253         -7.313634       -7.295338   1.000000   1.000000
    254         -7.311555       -7.294375   1.000000   1.000000
    255         -7.300248       -7.283879   1.000000   1.000000
    256         -7.298350       -7.280621   1.000000   1.000000
    257         -7.159683       -7.113330   1.000000   1.000000
    258         -7.157734       -7.098703   1.000000   1.000000
    259         -7.110688       -7.044272   1.000000   1.000000
    260         -7.091312       -7.033798   1.000000   1.000000
    261         -7.063565       -7.033538   1.000000   1.000000
    262         -7.032759       -7.011324   1.000000   1.000000
    263         -7.029758       -6.971371   1.000000   1.000000
    264         -7.001596       -6.966685   1.000000   1.000000
    265         -6.992895       -6.964506   1.000000   1.000000
    266         -6.977743       -6.960484   1.000000   1.000000
    267         -6.977171       -6.950984   1.000000   1.000000
    268         -6.972109       -6.945858   1.000000   1.000000
    269         -6.971459       -6.925859   1.000000   1.000000
    270         -6.962825       -6.906263   1.000000   1.000000
    271         -6.938634       -6.903817   1.000000   1.000000
    272         -6.937606       -6.887330   1.000000   1.000000
    273         -6.894336       -6.878459   1.000000   1.000000
    274         -6.888550       -6.846497   1.000000   1.000000
    275         -6.874648       -6.806933   1.000000   1.000000
    276         -6.864944       -6.804741   1.000000   1.000000
    277         -6.851797       -6.795706   1.000000   1.000000
    278         -6.833862       -6.787991   1.000000   1.000000
    279         -6.814235       -6.784124   1.000000   1.000000
    280         -6.809499       -6.756231   1.000000   1.000000
    281         -6.786876       -6.744809   1.000000   1.000000
    282         -6.777324       -6.718332   1.000000   1.000000
    283         -6.763040       -6.710908   1.000000   1.000000
    284         -6.740930       -6.710215   1.000000   1.000000
    285         -6.717036       -6.703109   1.000000   1.000000
    286         -6.713707       -6.690641   1.000000   1.000000
    287         -6.703374       -6.689538   1.000000   1.000000
    288         -6.683338       -6.674977   1.000000   1.000000
    289         -6.678636       -6.664335   1.000000   1.000000
    290         -6.652516       -6.641213   1.000000   1.000000
    291         -6.633843       -6.620563   1.000000   1.000000
    292         -6.629584       -6.609540   1.000000   1.000000
    293         -6.615666       -6.595245   1.000000   1.000000
    294         -6.608412       -6.579413   1.000000   1.000000
    295         -6.560238       -6.544328   1.000000   1.000000
    296         -6.558578       -6.523711   1.000000   1.000000
    297         -6.528234       -6.523635   1.000000   1.000000
    298         -6.527325       -6.518195   1.000000   1.000000
    299         -6.519693       -6.514920   1.000000   1.000000
    300         -6.499747       -6.485749   1.000000   1.000000
    301         -6.422703       -6.420310   1.000000   1.000000
    302         -6.420252       -6.417433   1.000000   1.000000
    303         -6.414321       -6.410295   1.000000   1.000000
    304         -6.401734       -6.397431   1.000000   1.000000
    305         -6.339957       -6.338243   1.000000   1.000000
    306         -6.339852       -6.337254   1.000000   1.000000
    307         -6.334412       -6.328790   1.000000   1.000000
    308         -6.330484       -6.326975   1.000000   1.000000
    309         -6.312822       -6.309055   1.000000   1.000000
    310         -6.310885       -6.308562   1.000000   1.000000
    311         -6.303372       -6.297023   1.000000   1.000000
    312         -6.300712       -6.295776   1.000000   1.000000
    313         -6.286109       -6.277783   1.000000   1.000000
    314         -6.278715       -6.274371   1.000000   1.000000
    315         -6.271965       -6.268760   1.000000   1.000000
    316         -6.268733       -6.254511   1.000000   1.000000
    317         -6.259526       -6.229225   1.000000   1.000000
    318         -6.250492       -6.223136   1.000000   1.000000
    319         -6.231329       -6.203232   1.000000   1.000000
    320         -6.212349       -6.195427   1.000000   1.000000
    321         -6.194172       -6.185293   1.000000   1.000000
    322         -6.189058       -6.174970   1.000000   1.000000
    323         -6.184376       -6.172740   1.000000   1.000000
    324         -6.183229       -6.162811   1.000000   1.000000
    325         -6.172341       -6.151222   1.000000   1.000000
    326         -6.159329       -6.150339   1.000000   1.000000
    327         -6.147489       -6.133642   1.000000   1.000000
    328         -6.133017       -6.123897   1.000000   1.000000
    329         -6.119933       -6.098250   1.000000   1.000000
    330         -6.099628       -6.081873   1.000000   1.000000
    331         -6.088128       -6.078598   1.000000   1.000000
    332         -6.078442       -6.060749   1.000000   1.000000
    333         -6.073083       -6.050026   1.000000   1.000000
    334         -6.070420       -6.047016   1.000000   1.000000
    335         -6.064312       -6.043573   1.000000   1.000000
    336         -6.056880       -6.016281   1.000000   1.000000
    337         -6.056098       -5.990574   1.000000   1.000000
    338         -6.034560       -5.984817   1.000000   1.000000
    339         -6.024776       -5.976711   1.000000   1.000000
    340         -6.020217       -5.954215   1.000000   1.000000
    341         -6.018175       -5.953298   1.000000   1.000000
    342         -6.014258       -5.948650   1.000000   1.000000
    343         -6.001008       -5.920088   1.000000   1.000000
    344         -5.951869       -5.889038   1.000000   1.000000
    345         -5.949829       -5.885137   1.000000   1.000000
    346         -5.905578       -5.864623   1.000000   1.000000
    347         -5.894725       -5.843038   1.000000   1.000000
    348         -5.883571       -5.838869   1.000000   1.000000
    349         -5.825205       -5.802515   1.000000   1.000000
    350         -5.813572       -5.802324   1.000000   1.000000
    351         -5.797840       -5.784496   1.000000   1.000000
    352         -5.786031       -5.781379   1.000000   1.000000
    353         -5.768226       -5.758267   1.000000   1.000000
    354         -5.767962       -5.746798   1.000000   1.000000
    355         -5.709600       -5.703716   1.000000   1.000000
    356         -5.689341       -5.684307   1.000000   1.000000
    357         -5.658453       -5.638025   1.000000   1.000000
    358         -5.634511       -5.618959   1.000000   1.000000
    359         -5.629764       -5.616646   1.000000   1.000000
    360         -5.622198       -5.610508   1.000000   1.000000
    361         -5.448725       -5.390751   1.000000   1.000000
    362         -5.443908       -5.370221   1.000000   1.000000
    363         -5.442734       -5.365260   1.000000   1.000000
    364         -5.428514       -5.350939   1.000000   1.000000
    365         -5.408579       -5.318630   1.000000   1.000000
    366         -5.407962       -5.311331   1.000000   1.000000
    367         -5.378876       -5.311063   1.000000   1.000000
    368         -5.372499       -5.286692   1.000000   1.000000
    369         -5.318181       -5.283798   1.000000   1.000000
    370         -5.305151       -5.282811   1.000000   1.000000
    371         -5.303530       -5.262787   1.000000   1.000000
    372         -5.299038       -5.243011   1.000000   1.000000
    373         -5.264988       -5.239686   1.000000   1.000000
    374         -5.249509       -5.216753   1.000000   1.000000
    375         -5.241520       -5.215550   1.000000   1.000000
    376         -5.238373       -5.206167   1.000000   1.000000
    377         -5.225547       -5.203071   1.000000   1.000000
    378         -5.219415       -5.196902   1.000000   1.000000
    379         -5.216775       -5.194783   1.000000   1.000000
    380         -5.210663       -5.194317   1.000000   1.000000
    381         -5.159796       -5.147933   1.000000   1.000000
    382         -5.159340       -5.133738   1.000000   1.000000
    383         -5.146633       -5.125844   1.000000   1.000000
    384         -5.143719       -5.125519   1.000000   1.000000
    385         -5.109439       -5.092403   1.000000   1.000000
    386         -5.105756       -5.090269   1.000000   1.000000
    387         -5.104495       -5.088103   1.000000   1.000000
    388         -5.095025       -5.084613   1.000000   1.000000
    389         -5.070713       -5.054694   1.000000   1.000000
    390         -5.062710       -5.039287   1.000000   1.000000
    391         -5.056608       -5.029448   1.000000   1.000000
    392         -5.001305       -4.993530   1.000000   1.000000
    393         -4.941759       -4.915474   1.000000   1.000000
    394         -4.923147       -4.909984   1.000000   1.000000
    395         -4.922115       -4.894666   1.000000   1.000000
    396         -4.922027       -4.880242   1.000000   1.000000
    397         -4.889554       -4.857384   1.000000   1.000000
    398         -4.864853       -4.827435   1.000000   1.000000
    399         -4.856277       -4.817052   1.000000   1.000000
    400         -4.845488       -4.791397   1.000000   1.000000
    401         -4.813939       -4.783135   1.000000   1.000000
    402         -4.802358       -4.780159   1.000000   1.000000
    403         -4.802191       -4.760583   1.000000   1.000000
    404         -4.799920       -4.760323   1.000000   1.000000
    405         -4.792379       -4.743486   1.000000   1.000000
    406         -4.770444       -4.740282   1.000000   1.000000
    407         -4.757614       -4.738028   1.000000   1.000000
    408         -4.757596       -4.736634   1.000000   1.000000
    409         -4.750056       -4.735219   1.000000   1.000000
    410         -4.745073       -4.725910   1.000000   1.000000
    411         -4.740444       -4.706088   1.000000   1.000000
    412         -4.728888       -4.704534   1.000000   1.000000
    413         -4.720337       -4.699318   1.000000   1.000000
    414         -4.715388       -4.686125   1.000000   1.000000
    415         -4.713758       -4.683006   1.000000   1.000000
    416         -4.694858       -4.670873   1.000000   1.000000
    417         -4.687278       -4.667656   1.000000   1.000000
    418         -4.686263       -4.630302   1.000000   1.000000
    419         -4.657624       -4.614985   1.000000   1.000000
    420         -4.655941       -4.601170   1.000000   1.000000
    421         -4.649077       -4.600592   1.000000   1.000000
    422         -4.624889       -4.585815   1.000000   1.000000
    423         -4.605955       -4.580264   1.000000   1.000000
    424         -4.596394       -4.578303   1.000000   1.000000
    425         -4.594735       -4.575403   1.000000   1.000000
    426         -4.590347       -4.561270   1.000000   1.000000
    427         -4.585253       -4.559355   1.000000   1.000000
    428         -4.580577       -4.537764   1.000000   1.000000
    429         -4.561380       -4.537699   1.000000   1.000000
    430         -4.538679       -4.528822   1.000000   1.000000
    431         -4.533127       -4.512936   1.000000   1.000000
    432         -4.529902       -4.512892   1.000000   1.000000
    433         -4.521946       -4.511132   1.000000   1.000000
    434         -4.517714       -4.499455   1.000000   1.000000
    435         -4.502709       -4.464021   1.000000   1.000000
    436         -4.484715       -4.462118   1.000000   1.000000
    437         -4.469069       -4.429519   1.000000   1.000000
    438         -4.434972       -4.420413   1.000000   1.000000
    439         -4.433077       -4.412207   1.000000   1.000000
    440         -4.397997       -4.387553   1.000000   1.000000
    441         -4.391513       -4.375411   1.000000   1.000000
    442         -4.376385       -4.361567   1.000000   1.000000
    443         -4.371034       -4.361116   1.000000   1.000000
    444         -4.369298       -4.357811   1.000000   1.000000
    445         -4.350291       -4.320459   1.000000   1.000000
    446         -4.341221       -4.313104   1.000000   1.000000
    447         -4.320869       -4.311756   1.000000   1.000000
    448         -4.316139       -4.301639   1.000000   1.000000
    449         -4.306844       -4.252295   1.000000   1.000000
    450         -4.303122       -4.227923   1.000000   1.000000
    451         -4.285870       -4.224897   1.000000   1.000000
    452         -4.281009       -4.215042   1.000000   1.000000
    453         -4.258185       -4.213184   1.000000   1.000000
    454         -4.240893       -4.207987   1.000000   1.000000
    455         -4.235650       -4.163077   1.000000   1.000000
    456         -4.234004       -4.148990   1.000000   1.000000
    457         -4.223869       -3.972031   1.000000   1.000000
    458         -4.210628       -3.944572   1.000000   1.000000
    459         -4.176748       -3.943197   1.000000   1.000000
    460         -4.174342       -3.929571   1.000000   1.000000
    461         -4.040701       -3.926188   1.000000   1.000000
    462         -4.028128       -3.922464   1.000000   1.000000
    463         -4.027244       -3.920179   1.000000   1.000000
    464         -4.017714       -3.902710   1.000000   1.000000