  436  436    1    2
  0.1076927E+02  0.1544877E-08  0.1640124E-08  0.1896706E-08  0.5000000E-15
  1.000000000000000E-004
  CAR 
 unknown system                          
   1176      8    768
 
  0.0000000E+00  0.0000000E+00  0.0000000E+00  0.8333333E-01
      1        -88.891032      -85.834648   1.000000   1.000000
      2        -88.857303      -84.543521   1.000000   1.000000
      3        -88.853285      -84.510240   1.000000   1.000000
      4        -85.834656      -84.501593   1.000000   1.000000
      5        -55.521480      -52.022499   1.000000   1.000000
      6        -55.492244      -51.986730   1.000000   1.000000
      7        -55.479074      -51.738120   1.000000   1.000000
      8        -54.882588      -50.834420   1.000000   1.000000
      9        -54.853027      -50.802881   1.000000   1.000000
     10        -54.844775      -50.792211   1.000000   1.000000
     11        -54.336380      -50.691938   1.000000   1.000000
     12        -54.302605      -50.658459   1.000000   1.000000
     13        -54.295566      -50.653412   1.000000   1.000000
     14        -52.022505      -50.488312   1.000000   1.000000
     15        -51.986749      -50.454177   1.000000   1.000000
     16        -51.738119      -50.444837   1.000000   1.000000
     17        -20.879337      -20.774399   1.000000   1.000000
     18        -20.859894      -20.773645   1.000000   1.000000
     19        -20.856224      -20.752737   1.000000   1.000000
     20        -20.776309      -20.750039   1.000000   1.000000
     21        -20.774311      -20.671862   1.000000   1.000000
     22        -20.749689      -20.645066   1.000000   1.000000
     23        -20.744862      -20.641705   1.000000   1.000000
     24        -20.584965      -20.584965   1.000000   1.000000
     25        -20.266108      -20.266141   1.000000   1.000000
     26        -20.112307      -20.110300   1.000000   1.000000
     27        -20.110278      -20.083105   1.000000   1.000000
     28        -20.091864      -20.062144   1.000000   1.000000
     29        -20.089112      -20.059618   1.000000   1.000000
     30        -20.020499      -19.992753   1.000000   1.000000
     31        -20.002552      -19.974660   1.000000   1.000000
     32        -19.998660      -19.970394   1.000000   1.000000
     33        -19.299598      -19.299615   1.000000   1.000000
     34        -19.222543      -19.222555   1.000000   1.000000
     35        -19.193380      -19.162630   1.000000   1.000000
     36        -19.166510      -19.133963   1.000000   1.000000
     37        -19.163583      -19.131822   1.000000   1.000000
     38        -19.154980      -19.124165   1.000000   1.000000
     39        -19.136598      -19.103085   1.000000   1.000000
     40        -19.129212      -19.095704   1.000000   1.000000
     41        -17.241498      -17.241536   1.000000   1.000000
     42        -17.184170      -17.184000   1.000000   1.000000
     43        -17.174595      -17.169506   1.000000   1.000000
     44        -17.158027      -17.153010   1.000000   1.000000
     45        -17.156299      -17.151167   1.000000   1.000000
     46        -17.134194      -17.128364   1.000000   1.000000
     47        -17.109063      -17.103211   1.000000   1.000000
     48        -17.100441      -17.094718   1.000000   1.000000
     49        -16.965009      -16.960042   1.000000   1.000000
     50        -16.942128      -16.937119   1.000000   1.000000
     51        -16.940064      -16.934396   1.000000   1.000000
     52        -16.930851      -16.925858   1.000000   1.000000
     53        -16.912545      -16.912150   1.000000   1.000000
     54        -16.909874      -16.904010   1.000000   1.000000
     55        -16.898844      -16.893267   1.000000   1.000000
     56        -16.888551      -16.888157   1.000000   1.000000
     57        -16.177063      -16.177127   1.000000   1.000000
     58        -16.140281      -16.140926   1.000000   1.000000
     59        -16.135459      -16.135011   1.000000   1.000000
     60        -16.127015      -16.127687   1.000000   1.000000
     61        -16.118796      -16.119369   1.000000   1.000000
     62        -16.115462      -16.113602   1.000000   1.000000
     63        -16.113621      -16.111438   1.000000   1.000000
     64        -16.093063      -16.090542   1.000000   1.000000
     65        -16.082946      -16.079077   1.000000   1.000000
     66        -16.074479      -16.073859   1.000000   1.000000
     67        -16.070261      -16.066196   1.000000   1.000000
     68        -16.065799      -16.063824   1.000000   1.000000
     69        -16.065336      -16.061189   1.000000   1.000000
     70        -16.055143      -16.053160   1.000000   1.000000
     71        -16.042657      -16.040057   1.000000   1.000000
     72        -16.037877      -16.037719   1.000000   1.000000
     73        -15.632837      -15.630510   1.000000   1.000000
     74        -15.617384      -15.614464   1.000000   1.000000
     75        -15.610122      -15.607810   1.000000   1.000000
     76        -15.609296      -15.607361   1.000000   1.000000
     77        -15.597338      -15.596333   1.000000   1.000000
     78        -15.590122      -15.587362   1.000000   1.000000
     79        -15.584079      -15.583512   1.000000   1.000000
     80        -15.581079      -15.578361   1.000000   1.000000
     81        -14.923162      -14.923198   1.000000   1.000000
     82        -14.867046      -14.867008   1.000000   1.000000
     83        -14.856897      -14.856683   1.000000   1.000000
     84        -14.838079      -14.837755   1.000000   1.000000
     85        -14.829667      -14.829525   1.000000   1.000000
     86        -14.806784      -14.805708   1.000000   1.000000
     87        -14.791219      -14.790118   1.000000   1.000000
     88        -14.784154      -14.783056   1.000000   1.000000
     89        -14.617777      -14.618653   1.000000   1.000000
     90        -14.603229      -14.604031   1.000000   1.000000
     91        -14.589671      -14.591074   1.000000   1.000000
     92        -14.583399      -14.583634   1.000000   1.000000
     93        -14.576663      -14.578011   1.000000   1.000000
     94        -14.570922      -14.571085   1.000000   1.000000
     95        -14.562604      -14.562340   1.000000   1.000000
     96        -14.551539      -14.551505   1.000000   1.000000
     97        -13.977256      -13.972968   1.000000   1.000000
     98        -13.967209      -13.965858   1.000000   1.000000
     99        -13.951590      -13.947547   1.000000   1.000000
    100        -13.949044      -13.944577   1.000000   1.000000
    101        -13.944853      -13.940834   1.000000   1.000000
    102        -13.934747      -13.933081   1.000000   1.000000
    103        -13.921174      -13.917319   1.000000   1.000000
    104        -13.911906      -13.907016   1.000000   1.000000
    105        -13.312001      -13.301784   1.000000   1.000000
    106        -13.285246      -13.275040   1.000000   1.000000
    107        -13.282782      -13.271728   1.000000   1.000000
    108        -13.279134      -13.270156   1.000000   1.000000
    109        -13.264762      -13.263022   1.000000   1.000000
    110        -13.253661      -13.242167   1.000000   1.000000
    111        -13.244359      -13.232837   1.000000   1.000000
    112        -13.228159      -13.228059   1.000000   1.000000
    113        -12.719037      -12.717760   1.000000   1.000000
    114        -12.710790      -12.709141   1.000000   1.000000
    115        -12.709011      -12.707585   1.000000   1.000000
    116        -12.696223      -12.694653   1.000000   1.000000
    117        -12.641219      -12.640177   1.000000   1.000000
    118        -12.625945      -12.624919   1.000000   1.000000
    119        -12.621825      -12.620514   1.000000   1.000000
    120        -12.611327      -12.609704   1.000000   1.000000
    121        -12.577605      -12.577168   1.000000   1.000000
    122        -12.571309      -12.570749   1.000000   1.000000
    123        -12.542788      -12.542412   1.000000   1.000000
    124        -12.541668      -12.541181   1.000000   1.000000
    125        -12.523211      -12.522892   1.000000   1.000000
    126        -12.516904      -12.516418   1.000000   1.000000
    127        -12.503233      -12.502729   1.000000   1.000000
    128        -12.498511      -12.498149   1.000000   1.000000
    129        -12.492853      -12.492279   1.000000   1.000000
    130        -12.481943      -12.481285   1.000000   1.000000
    131        -12.478158      -12.477576   1.000000   1.000000
    132        -12.467410      -12.467038   1.000000   1.000000
    133        -12.464087      -12.463741   1.000000   1.000000
    134        -12.458924      -12.458430   1.000000   1.000000
    135        -12.454654      -12.454115   1.000000   1.000000
    136        -12.446078      -12.445873   1.000000   1.000000
    137        -12.418869      -12.418185   1.000000   1.000000
    138        -12.416337      -12.415651   1.000000   1.000000
    139        -12.402492      -12.402332   1.000000   1.000000
    140        -12.392630      -12.391781   1.000000   1.000000
    141        -12.317946      -12.317090   1.000000   1.000000
    142        -12.310946      -12.310128   1.000000   1.000000
    143        -12.302449      -12.301624   1.000000   1.000000
    144        -12.283640      -12.283603   1.000000   1.000000
    145        -12.231830      -12.231713   1.000000   1.000000
    146        -12.203035      -12.202287   1.000000   1.000000
    147        -12.188989      -12.187504   1.000000   1.000000
    148        -12.186488      -12.185556   1.000000   1.000000
    149        -12.172883      -12.171515   1.000000   1.000000
    150        -12.153951      -12.151303   1.000000   1.000000
    151        -12.132461      -12.129543   1.000000   1.000000
    152        -12.124328      -12.121822   1.000000   1.000000
    153        -11.993802      -11.993801   1.000000   1.000000
    154        -11.940932      -11.940820   1.000000   1.000000
    155        -11.908948      -11.902217   1.000000   1.000000
    156        -11.888543      -11.881715   1.000000   1.000000
    157        -11.882556      -11.875503   1.000000   1.000000
    158        -11.851424      -11.844103   1.000000   1.000000
    159        -11.835594      -11.828323   1.000000   1.000000
    160        -11.827341      -11.819792   1.000000   1.000000
    161        -11.648828      -11.648812   1.000000   1.000000
    162        -11.631718      -11.631747   1.000000   1.000000
    163        -11.627561      -11.627728   1.000000   1.000000
    164        -11.615011      -11.615136   1.000000   1.000000
    165        -11.608765      -11.607898   1.000000   1.000000
    166        -11.598859      -11.598180   1.000000   1.000000
    167        -11.588192      -11.586413   1.000000   1.000000
    168        -11.577808      -11.576156   1.000000   1.000000
    169        -10.772063      -10.760749   1.000000   1.000000
    170        -10.762189      -10.754535   1.000000   1.000000
    171        -10.741335      -10.739365   1.000000   1.000000
    172        -10.739321      -10.723904   1.000000   1.000000
    173        -10.731303      -10.715629   1.000000   1.000000
    174        -10.726256      -10.710515   1.000000   1.000000
    175        -10.700746      -10.687156   1.000000   1.000000
    176        -10.692294      -10.676611   1.000000   1.000000
    177        -10.651200      -10.645833   1.000000   1.000000
    178        -10.634946      -10.630017   1.000000   1.000000
    179        -10.633601      -10.628336   1.000000   1.000000
    180        -10.620178      -10.616346   1.000000   1.000000
    181        -10.616949      -10.613365   1.000000   1.000000
    182        -10.601437      -10.598534   1.000000   1.000000
    183        -10.594263      -10.589756   1.000000   1.000000
    184        -10.581021      -10.580137   1.000000   1.000000
    185        -10.019993      -10.012668   1.000000   1.000000
    186        -10.009709      -10.006874   1.000000   1.000000
    187         -9.999791       -9.992796   1.000000   1.000000
    188         -9.983398       -9.978963   1.000000   1.000000
    189         -9.972347       -9.965680   1.000000   1.000000
    190         -9.958820       -9.952412   1.000000   1.000000
    191         -9.943474       -9.937427   1.000000   1.000000
    192         -9.932361       -9.931129   1.000000   1.000000
    193         -9.510073       -9.508174   1.000000   1.000000
    194         -9.456074       -9.433390   1.000000   1.000000
    195         -9.444518       -9.421796   1.000000   1.000000
    196         -9.407350       -9.384155   1.000000   1.000000
    197         -9.345378       -9.342946   1.000000   1.000000
    198         -9.331438       -9.322948   1.000000   1.000000
    199         -9.311092       -9.301809   1.000000   1.000000
    200         -9.295783       -9.287260   1.000000   1.000000
    201         -9.176275       -9.176008   1.000000   1.000000
    202         -9.143657       -9.140086   1.000000   1.000000
    203         -9.132811       -9.123743   1.000000   1.000000
    204         -9.121739       -9.110392   1.000000   1.000000
    205         -9.118309       -9.106778   1.000000   1.000000
    206         -9.093567       -9.081136   1.000000   1.000000
    207         -9.077822       -9.064976   1.000000   1.000000
    208         -9.064178       -9.051121   1.000000   1.000000
    209         -8.891529       -8.890884   1.000000   1.000000
    210         -8.834028       -8.816416   1.000000   1.000000
    211         -8.826378       -8.812350   1.000000   1.000000
    212         -8.817552       -8.800757   1.000000   1.000000
    213         -8.801732       -8.785550   1.000000   1.000000
    214         -8.799077       -8.781780   1.000000   1.000000
    215         -8.792940       -8.779000   1.000000   1.000000
    216         -8.758653       -8.742319   1.000000   1.000000
    217         -8.691845       -8.685207   1.000000   1.000000
    218         -8.679595       -8.676763   1.000000   1.000000
    219         -8.658841       -8.650432   1.000000   1.000000
    220         -8.648992       -8.639307   1.000000   1.000000
    221         -8.629368       -8.622664   1.000000   1.000000
    222         -8.608688       -8.600440   1.000000   1.000000
    223         -8.590987       -8.580595   1.000000   1.000000
    224         -8.580342       -8.570145   1.000000   1.000000
    225         -8.358526       -8.344203   1.000000   1.000000
    226         -8.342058       -8.330710   1.000000   1.000000
    227         -8.325717       -8.312747   1.000000   1.000000
    228         -8.319312       -8.301783   1.000000   1.000000
    229         -8.301283       -8.283013   1.000000   1.000000
    230         -8.259330       -8.245289   1.000000   1.000000
    231         -8.257213       -8.239550   1.000000   1.000000
    232         -8.213258       -8.205107   1.000000   1.000000
    233         -7.916282       -7.867025   1.000000   1.000000
    234         -7.910616       -7.860629   1.000000   1.000000
    235         -7.898335       -7.852011   1.000000   1.000000
    236         -7.886108       -7.837844   1.000000   1.000000
    237         -7.843928       -7.814748   1.000000   1.000000
    238         -7.815890       -7.800807   1.000000   1.000000
    239         -7.813449       -7.792604   1.000000   1.000000
    240         -7.808010       -7.776701   1.000000   1.000000
    241         -7.791067       -7.765655   1.000000   1.000000
    242         -7.783716       -7.758898   1.000000   1.000000
    243         -7.778029       -7.748283   1.000000   1.000000
    244         -7.757700       -7.737431   1.000000   1.000000
    245         -7.752449       -7.724883   1.000000   1.000000
    246         -7.740845       -7.720784   1.000000   1.000000
    247         -7.728927       -7.716541   1.000000   1.000000
    248         -7.721759       -7.705057   1.000000   1.000000
    249         -7.400402       -7.397183   1.000000   1.000000
    250         -7.378132       -7.371679   1.000000   1.000000
    251         -7.362798       -7.345743   1.000000   1.000000
    252         -7.357756       -7.342124   1.000000   1.000000
    253         -7.341898       -7.331163   1.000000   1.000000
    254         -7.326823       -7.310314   1.000000   1.000000
    255         -7.301530       -7.284521   1.000000   1.000000
    256         -7.296507       -7.279223   1.000000   1.000000
    257         -7.152072       -7.116342   1.000000   1.000000
    258         -7.144547       -7.094835   1.000000   1.000000
    259         -7.097660       -7.076424   1.000000   1.000000
    260         -7.096354       -7.040585   1.000000   1.000000
    261         -7.059559       -7.035208   1.000000   1.000000
    262         -7.045646       -7.028349   1.000000   1.000000
    263         -7.019285       -7.001912   1.000000   1.000000
    264         -7.013100       -6.977760   1.000000   1.000000
    265         -6.993350       -6.974815   1.000000   1.000000
    266         -6.986960       -6.963179   1.000000   1.000000
    267         -6.982316       -6.956603   1.000000   1.000000
    268         -6.976401       -6.947602   1.000000   1.000000
    269         -6.969353       -6.947214   1.000000   1.000000
    270         -6.960495       -6.937236   1.000000   1.000000
    271         -6.944935       -6.919744   1.000000   1.000000
    272         -6.936773       -6.905808   1.000000   1.000000
    273         -6.931783       -6.888141   1.000000   1.000000
    274         -6.888364       -6.871353   1.000000   1.000000
    275         -6.881904       -6.844316   1.000000   1.000000
    276         -6.864826       -6.823867   1.000000   1.000000
    277         -6.851446       -6.806026   1.000000   1.000000
    278         -6.832230       -6.799438   1.000000   1.000000
    279         -6.827796       -6.785211   1.000000   1.000000
    280         -6.813725       -6.770891   1.000000   1.000000
    281         -6.795201       -6.761367   1.000000   1.000000
    282         -6.779212       -6.745525   1.000000   1.000000
    283         -6.761654       -6.720148   1.000000   1.000000
    284         -6.752402       -6.714274   1.000000   1.000000
    285         -6.718336       -6.703981   1.000000   1.000000
    286         -6.715148       -6.696340   1.000000   1.000000
    287         -6.696870       -6.686019   1.000000   1.000000
    288         -6.684724       -6.676741   1.000000   1.000000
    289         -6.673893       -6.663355   1.000000   1.000000
    290         -6.646989       -6.639697   1.000000   1.000000
    291         -6.629937       -6.622398   1.000000   1.000000
    292         -6.628012       -6.597885   1.000000   1.000000
    293         -6.603443       -6.593693   1.000000   1.000000
    294         -6.586552       -6.561885   1.000000   1.000000
    295         -6.562136       -6.545866   1.000000   1.000000
    296         -6.537659       -6.529427   1.000000   1.000000
    297         -6.528244       -6.519134   1.000000   1.000000
    298         -6.520877       -6.514221   1.000000   1.000000
    299         -6.513225       -6.507572   1.000000   1.000000
    300         -6.478660       -6.472448   1.000000   1.000000
    301         -6.420058       -6.417848   1.000000   1.000000
    302         -6.413283       -6.410858   1.000000   1.000000
    303         -6.409419       -6.407198   1.000000   1.000000
    304         -6.396398       -6.392478   1.000000   1.000000
    305         -6.357065       -6.354591   1.000000   1.000000
    306         -6.350435       -6.349010   1.000000   1.000000
    307         -6.332974       -6.330051   1.000000   1.000000
    308         -6.328197       -6.323771   1.000000   1.000000
    309         -6.320169       -6.316867   1.000000   1.000000
    310         -6.312526       -6.309330   1.000000   1.000000
    311         -6.303738       -6.301405   1.000000   1.000000
    312         -6.299350       -6.290661   1.000000   1.000000
    313         -6.292617       -6.287876   1.000000   1.000000
    314         -6.274698       -6.270432   1.000000   1.000000
    315         -6.270187       -6.262965   1.000000   1.000000
    316         -6.266771       -6.261859   1.000000   1.000000
    317         -6.260279       -6.248322   1.000000   1.000000
    318         -6.248179       -6.231083   1.000000   1.000000
    319         -6.238287       -6.223062   1.000000   1.000000
    320         -6.223251       -6.205322   1.000000   1.000000
    321         -6.205115       -6.186471   1.000000   1.000000
    322         -6.191983       -6.186027   1.000000   1.000000
    323         -6.186076       -6.177057   1.000000   1.000000
    324         -6.182927       -6.165889   1.000000   1.000000
    325         -6.175769       -6.158170   1.000000   1.000000
    326         -6.159105       -6.151140   1.000000   1.000000
    327         -6.147244       -6.138478   1.000000   1.000000
    328         -6.137201       -6.127178   1.000000   1.000000
    329         -6.127154       -6.122030   1.000000   1.000000
    330         -6.107953       -6.101001   1.000000   1.000000
    331         -6.101872       -6.083239   1.000000   1.000000
    332         -6.090744       -6.077010   1.000000   1.000000
    333         -6.081979       -6.071335   1.000000   1.000000
    334         -6.078555       -6.065537   1.000000   1.000000
    335         -6.068735       -6.058155   1.000000   1.000000
    336         -6.064976       -6.042425   1.000000   1.000000
    337         -6.051927       -6.030138   1.000000   1.000000
    338         -6.047016       -6.018911   1.000000   1.000000
    339         -6.037537       -5.992102   1.000000   1.000000
    340         -6.032376       -5.981915   1.000000   1.000000
    341         -6.019479       -5.959074   1.000000   1.000000
    342         -6.011925       -5.944252   1.000000   1.000000
    343         -6.007521       -5.940421   1.000000   1.000000
    344         -5.959566       -5.893464   1.000000   1.000000
    345         -5.933141       -5.882989   1.000000   1.000000
    346         -5.887193       -5.868720   1.000000   1.000000
    347         -5.886411       -5.844136   1.000000   1.000000
    348         -5.871387       -5.837684   1.000000   1.000000
    349         -5.817123       -5.801499   1.000000   1.000000
    350         -5.803018       -5.789897   1.000000   1.000000
    351         -5.790961       -5.780860   1.000000   1.000000
    352         -5.780412       -5.774931   1.000000   1.000000
    353         -5.763021       -5.754894   1.000000   1.000000
    354         -5.754373       -5.743486   1.000000   1.000000
    355         -5.702265       -5.697530   1.000000   1.000000
    356         -5.680685       -5.675804   1.000000   1.000000
    357         -5.648332       -5.632764   1.000000   1.000000
    358         -5.628467       -5.614248   1.000000   1.000000
    359         -5.621337       -5.610109   1.000000   1.000000
    360         -5.568629       -5.565968   1.000000   1.000000
    361         -5.460665       -5.406325   1.000000   1.000000
    362         -5.440724       -5.387306   1.000000   1.000000
    363         -5.432526       -5.367981   1.000000   1.000000
    364         -5.415322       -5.348335   1.000000   1.000000
    365         -5.399056       -5.344143   1.000000   1.000000
    366         -5.384152       -5.317076   1.000000   1.000000
    367         -5.368855       -5.306464   1.000000   1.000000
    368         -5.348633       -5.293557   1.000000   1.000000
    369         -5.313368       -5.284952   1.000000   1.000000
    370         -5.309419       -5.265798   1.000000   1.000000
    371         -5.280709       -5.258332   1.000000   1.000000
    372         -5.271166       -5.255294   1.000000   1.000000
    373         -5.258490       -5.242103   1.000000   1.000000
    374         -5.251882       -5.224565   1.000000   1.000000
    375         -5.239386       -5.216025   1.000000   1.000000
    376         -5.234673       -5.208770   1.000000   1.000000
    377         -5.230961       -5.204279   1.000000   1.000000
    378         -5.218787       -5.203747   1.000000   1.000000
    379         -5.212584       -5.200183   1.000000   1.000000
    380         -5.189151       -5.180859   1.000000   1.000000
    381         -5.171429       -5.164209   1.000000   1.000000
    382         -5.162256       -5.150078   1.000000   1.000000
    383         -5.148592       -5.130067   1.000000   1.000000
    384         -5.127603       -5.117185   1.000000   1.000000
    385         -5.118014       -5.107497   1.000000   1.000000
    386         -5.107571       -5.101111   1.000000   1.000000
    387         -5.100159       -5.088392   1.000000   1.000000
    388         -5.091765       -5.074603   1.000000   1.000000
    389         -5.072039       -5.061091   1.000000   1.000000
    390         -5.068147       -5.051552   1.000000   1.000000
    391         -5.054877       -5.032221   1.000000   1.000000
    392         -5.006638       -4.998935   1.000000   1.000000
    393         -4.942927       -4.914062   1.000000   1.000000
    394         -4.922267       -4.899994   1.000000   1.000000
    395         -4.908807       -4.887276   1.000000   1.000000
    396         -4.900208       -4.872674   1.000000   1.000000
    397         -4.881222       -4.864234   1.000000   1.000000
    398         -4.861767       -4.826335   1.000000   1.000000
    399         -4.854604       -4.817893   1.000000   1.000000
    400         -4.820527       -4.795975   1.000000   1.000000
    401         -4.805746       -4.790752   1.000000   1.000000
    402         -4.804077       -4.773379   1.000000   1.000000
    403         -4.799294       -4.770464   1.000000   1.000000
    404         -4.787012       -4.760481   1.000000   1.000000
    405         -4.780232       -4.752988   1.000000   1.000000
    406         -4.768947       -4.749978   1.000000   1.000000
    407         -4.764895       -4.737776   1.000000   1.000000
    408         -4.751341       -4.732333   1.000000   1.000000
    409         -4.742495       -4.725632   1.000000   1.000000
    410         -4.733915       -4.722779   1.000000   1.000000
    411         -4.731441       -4.710666   1.000000   1.000000
    412         -4.723692       -4.702469   1.000000   1.000000
    413         -4.715354       -4.694728   1.000000   1.000000
    414         -4.712735       -4.688926   1.000000   1.000000
    415         -4.701281       -4.685375   1.000000   1.000000
    416         -4.696014       -4.683229   1.000000   1.000000
    417         -4.684426       -4.659350   1.000000   1.000000
    418         -4.674029       -4.635054   1.000000   1.000000
    419         -4.664557       -4.616869   1.000000   1.000000
    420         -4.645705       -4.607071   1.000000   1.000000
    421         -4.629203       -4.603065   1.000000   1.000000
    422         -4.618847       -4.594592   1.000000   1.000000
    423         -4.606962       -4.589141   1.000000   1.000000
    424         -4.600049       -4.585879   1.000000   1.000000
    425         -4.594635       -4.573302   1.000000   1.000000
    426         -4.586758       -4.572095   1.000000   1.000000
    427         -4.579751       -4.560579   1.000000   1.000000
    428         -4.575040       -4.554162   1.000000   1.000000
    429         -4.546898       -4.530711   1.000000   1.000000
    430         -4.541135       -4.526353   1.000000   1.000000
    431         -4.535083       -4.514634   1.000000   1.000000
    432         -4.528143       -4.511305   1.000000   1.000000
    433         -4.516549       -4.503356   1.000000   1.000000
    434         -4.509129       -4.487683   1.000000   1.000000
    435         -4.496774       -4.477184   1.000000   1.000000
    436         -4.478926       -4.461202   1.000000   1.000000
    437         -4.467572       -4.441206   1.000000   1.000000
    438         -4.437439       -4.423635   1.000000   1.000000
    439         -4.417837       -4.403642   1.000000   1.000000
    440         -4.395207       -4.385178   1.000000   1.000000
    441         -4.386283       -4.375615   1.000000   1.000000
    442         -4.368140       -4.359572   1.000000   1.000000
    443         -4.363149       -4.347963   1.000000   1.000000
    444         -4.353154       -4.343135   1.000000   1.000000
    445         -4.334916       -4.314785   1.000000   1.000000
    446         -4.328568       -4.309595   1.000000   1.000000
    447         -4.316084       -4.308004   1.000000   1.000000
    448         -4.313314       -4.295386   1.000000   1.000000
    449         -4.305349       -4.248779   1.000000   1.000000
    450         -4.299434       -4.230449   1.000000   1.000000
    451         -4.275084       -4.219496   1.000000   1.000000
    452         -4.253994       -4.211234   1.000000   1.000000
    453         -4.238402       -4.205594   1.000000   1.000000
    454         -4.228599       -4.194692   1.000000   1.000000
    455         -4.224635       -4.152713   1.000000   1.000000
    456         -4.215327       -4.145759   1.000000   1.000000
    457         -4.193566       -4.093878   1.000000   1.000000
    458         -4.166773       -3.979018   1.000000   1.000000
    459         -4.160318       -3.957441   1.000000   1.000000
    460         -4.111743       -3.940572   1.000000   1.000000
    461         -4.041429       -3.927364   1.000000   1.000000
    462         -4.021855       -3.917343   1.000000   1.000000
    463         -4.014229       -3.913562   1.000000   1.000000
    464         -4.002921       -3.907101   1.000000   1.000000