  436  436    1    2
  0.1075276E+02  0.1540574E-08  0.1636863E-08  0.1902355E-08  0.5000000E-15
  1.000000000000000E-004
  CAR 
 unknown system                          
   1176      8    768
 
  0.0000000E+00  0.0000000E+00  0.0000000E+00  0.8333333E-01
      1        -88.850796      -85.847848   1.000000   1.000000
      2        -88.850795      -85.847846   1.000000   1.000000
      3        -85.847877      -84.500600   1.000000   1.000000
      4        -85.847875      -84.500600   1.000000   1.000000
      5        -55.478638      -52.038433   1.000000   1.000000
      6        -55.478602      -52.038418   1.000000   1.000000
      7        -54.845632      -51.994137   1.000000   1.000000
      8        -54.845620      -51.994125   1.000000   1.000000
      9        -54.295917      -51.754647   1.000000   1.000000
     10        -54.295912      -51.754605   1.000000   1.000000
     11        -52.038452      -50.791609   1.000000   1.000000
     12        -52.038437      -50.791579   1.000000   1.000000
     13        -51.994176      -50.651154   1.000000   1.000000
     14        -51.994164      -50.651145   1.000000   1.000000
     15        -51.754673      -50.444598   1.000000   1.000000
     16        -51.754631      -50.444591   1.000000   1.000000
     17        -20.855114      -20.796978   1.000000   1.000000
     18        -20.854918      -20.796332   1.000000   1.000000
     19        -20.796971      -20.748210   1.000000   1.000000
     20        -20.796325      -20.747968   1.000000   1.000000
     21        -20.744938      -20.640653   1.000000   1.000000
     22        -20.744929      -20.640640   1.000000   1.000000
     23        -20.604599      -20.604607   1.000000   1.000000
     24        -20.604530      -20.604538   1.000000   1.000000
     25        -20.276521      -20.276547   1.000000   1.000000
     26        -20.276170      -20.276195   1.000000   1.000000
     27        -20.120626      -20.120649   1.000000   1.000000
     28        -20.119911      -20.119936   1.000000   1.000000
     29        -20.085627      -20.055838   1.000000   1.000000
     30        -20.085025      -20.055282   1.000000   1.000000
     31        -19.995762      -19.967562   1.000000   1.000000
     32        -19.995173      -19.966953   1.000000   1.000000
     33        -19.315027      -19.315044   1.000000   1.000000
     34        -19.312898      -19.312915   1.000000   1.000000
     35        -19.236968      -19.236985   1.000000   1.000000
     36        -19.236932      -19.236948   1.000000   1.000000
     37        -19.155915      -19.125040   1.000000   1.000000
     38        -19.153324      -19.122414   1.000000   1.000000
     39        -19.128344      -19.094726   1.000000   1.000000
     40        -19.127033      -19.093364   1.000000   1.000000
     41        -17.247317      -17.247352   1.000000   1.000000
     42        -17.247109      -17.247130   1.000000   1.000000
     43        -17.190744      -17.190642   1.000000   1.000000
     44        -17.190131      -17.190017   1.000000   1.000000
     45        -17.153601      -17.148485   1.000000   1.000000
     46        -17.153510      -17.148450   1.000000   1.000000
     47        -17.098701      -17.092917   1.000000   1.000000
     48        -17.097035      -17.091242   1.000000   1.000000
     49        -16.942892      -16.942597   1.000000   1.000000
     50        -16.931935      -16.927259   1.000000   1.000000
     51        -16.925752      -16.924935   1.000000   1.000000
     52        -16.920443      -16.916268   1.000000   1.000000
     53        -16.908876      -16.908819   1.000000   1.000000
     54        -16.907397      -16.907249   1.000000   1.000000
     55        -16.898059      -16.892239   1.000000   1.000000
     56        -16.894033      -16.888184   1.000000   1.000000
     57        -16.183347      -16.183389   1.000000   1.000000
     58        -16.178660      -16.178700   1.000000   1.000000
     59        -16.140822      -16.140825   1.000000   1.000000
     60        -16.130524      -16.130536   1.000000   1.000000
     61        -16.121015      -16.121750   1.000000   1.000000
     62        -16.113467      -16.114108   1.000000   1.000000
     63        -16.100581      -16.098570   1.000000   1.000000
     64        -16.088376      -16.085848   1.000000   1.000000
     65        -16.078332      -16.078246   1.000000   1.000000
     66        -16.074360      -16.074310   1.000000   1.000000
     67        -16.059249      -16.055407   1.000000   1.000000
     68        -16.058029      -16.054073   1.000000   1.000000
     69        -16.047113      -16.045611   1.000000   1.000000
     70        -16.043250      -16.042971   1.000000   1.000000
     71        -16.042911      -16.042059   1.000000   1.000000
     72        -16.035727      -16.032907   1.000000   1.000000
     73        -15.619069      -15.618967   1.000000   1.000000
     74        -15.609944      -15.609646   1.000000   1.000000
     75        -15.602003      -15.601984   1.000000   1.000000
     76        -15.600664      -15.599259   1.000000   1.000000
     77        -15.599478      -15.597278   1.000000   1.000000
     78        -15.588718      -15.587872   1.000000   1.000000
     79        -15.579032      -15.575867   1.000000   1.000000
     80        -15.576693      -15.573684   1.000000   1.000000
     81        -14.932082      -14.932107   1.000000   1.000000
     82        -14.923151      -14.923179   1.000000   1.000000
     83        -14.869964      -14.869976   1.000000   1.000000
     84        -14.869933      -14.869937   1.000000   1.000000
     85        -14.832801      -14.832501   1.000000   1.000000
     86        -14.825318      -14.825191   1.000000   1.000000
     87        -14.781867      -14.780595   1.000000   1.000000
     88        -14.778194      -14.777112   1.000000   1.000000
     89        -14.626703      -14.626842   1.000000   1.000000
     90        -14.608071      -14.608222   1.000000   1.000000
     91        -14.592685      -14.592842   1.000000   1.000000
     92        -14.585189      -14.586569   1.000000   1.000000
     93        -14.577869      -14.578008   1.000000   1.000000
     94        -14.571896      -14.573289   1.000000   1.000000
     95        -14.554090      -14.553994   1.000000   1.000000
     96        -14.546283      -14.546148   1.000000   1.000000
     97        -13.980598      -13.980216   1.000000   1.000000
     98        -13.975181      -13.974881   1.000000   1.000000
     99        -13.948963      -13.948704   1.000000   1.000000
    100        -13.946511      -13.943746   1.000000   1.000000
    101        -13.944186      -13.942700   1.000000   1.000000
    102        -13.941224      -13.937293   1.000000   1.000000
    103        -13.915278      -13.910299   1.000000   1.000000
    104        -13.908293      -13.903491   1.000000   1.000000
    105        -13.286987      -13.286386   1.000000   1.000000
    106        -13.283223      -13.282952   1.000000   1.000000
    107        -13.271530      -13.261992   1.000000   1.000000
    108        -13.271147      -13.261364   1.000000   1.000000
    109        -13.248406      -13.248302   1.000000   1.000000
    110        -13.246857      -13.246451   1.000000   1.000000
    111        -13.240164      -13.228794   1.000000   1.000000
    112        -13.240016      -13.228579   1.000000   1.000000
    113        -12.710387      -12.710312   1.000000   1.000000
    114        -12.701584      -12.701186   1.000000   1.000000
    115        -12.699880      -12.698029   1.000000   1.000000
    116        -12.685282      -12.683880   1.000000   1.000000
    117        -12.635924      -12.635704   1.000000   1.000000
    118        -12.622863      -12.622809   1.000000   1.000000
    119        -12.612252      -12.610510   1.000000   1.000000
    120        -12.601211      -12.599559   1.000000   1.000000
    121        -12.565432      -12.565431   1.000000   1.000000
    122        -12.561132      -12.560558   1.000000   1.000000
    123        -12.533099      -12.532973   1.000000   1.000000
    124        -12.531527      -12.531111   1.000000   1.000000
    125        -12.511029      -12.510859   1.000000   1.000000
    126        -12.504168      -12.503763   1.000000   1.000000
    127        -12.496309      -12.496034   1.000000   1.000000
    128        -12.490523      -12.490141   1.000000   1.000000
    129        -12.482743      -12.482589   1.000000   1.000000
    130        -12.474445      -12.473865   1.000000   1.000000
    131        -12.468415      -12.467965   1.000000   1.000000
    132        -12.461034      -12.460807   1.000000   1.000000
    133        -12.451635      -12.451263   1.000000   1.000000
    134        -12.448681      -12.448478   1.000000   1.000000
    135        -12.443441      -12.443261   1.000000   1.000000
    136        -12.442908      -12.442594   1.000000   1.000000
    137        -12.407376      -12.407224   1.000000   1.000000
    138        -12.399747      -12.399560   1.000000   1.000000
    139        -12.399684      -12.399071   1.000000   1.000000
    140        -12.390340      -12.389683   1.000000   1.000000
    141        -12.300453      -12.299644   1.000000   1.000000
    142        -12.299469      -12.298680   1.000000   1.000000
    143        -12.288802      -12.288784   1.000000   1.000000
    144        -12.281825      -12.281759   1.000000   1.000000
    145        -12.241565      -12.241578   1.000000   1.000000
    146        -12.228170      -12.228172   1.000000   1.000000
    147        -12.200220      -12.200210   1.000000   1.000000
    148        -12.197513      -12.197483   1.000000   1.000000
    149        -12.182390      -12.180784   1.000000   1.000000
    150        -12.166626      -12.165216   1.000000   1.000000
    151        -12.124592      -12.121611   1.000000   1.000000
    152        -12.117973      -12.115447   1.000000   1.000000
    153        -11.998872      -11.998883   1.000000   1.000000
    154        -11.997799      -11.997784   1.000000   1.000000
    155        -11.946807      -11.946667   1.000000   1.000000
    156        -11.946394      -11.946379   1.000000   1.000000
    157        -11.882066      -11.875325   1.000000   1.000000
    158        -11.880377      -11.873369   1.000000   1.000000
    159        -11.824497      -11.816936   1.000000   1.000000
    160        -11.824093      -11.816661   1.000000   1.000000
    161        -11.659139      -11.659172   1.000000   1.000000
    162        -11.633842      -11.633885   1.000000   1.000000
    163        -11.624385      -11.624579   1.000000   1.000000
    164        -11.618834      -11.618852   1.000000   1.000000
    165        -11.609511      -11.609665   1.000000   1.000000
    166        -11.602901      -11.602893   1.000000   1.000000
    167        -11.578326      -11.576557   1.000000   1.000000
    168        -11.573613      -11.571841   1.000000   1.000000
    169        -10.774571      -10.773577   1.000000   1.000000
    170        -10.772358      -10.771578   1.000000   1.000000
    171        -10.754690      -10.754196   1.000000   1.000000
    172        -10.751878      -10.751245   1.000000   1.000000
    173        -10.729543      -10.712674   1.000000   1.000000
    174        -10.728231      -10.711882   1.000000   1.000000
    175        -10.692783      -10.678526   1.000000   1.000000
    176        -10.690877      -10.677258   1.000000   1.000000
    177        -10.637243      -10.634808   1.000000   1.000000
    178        -10.631544      -10.627927   1.000000   1.000000
    179        -10.618320      -10.615139   1.000000   1.000000
    180        -10.616834      -10.614951   1.000000   1.000000
    181        -10.607401      -10.605318   1.000000   1.000000
    182        -10.594596      -10.592403   1.000000   1.000000
    183        -10.589414      -10.585916   1.000000   1.000000
    184        -10.588729      -10.585441   1.000000   1.000000
    185        -10.013423      -10.012755   1.000000   1.000000
    186        -10.013047      -10.011355   1.000000   1.000000
    187         -9.990826       -9.984415   1.000000   1.000000
    188         -9.983320       -9.980472   1.000000   1.000000
    189         -9.955415       -9.951862   1.000000   1.000000
    190         -9.949332       -9.943118   1.000000   1.000000
    191         -9.937143       -9.934917   1.000000   1.000000
    192         -9.931145       -9.926611   1.000000   1.000000
    193         -9.523738       -9.523095   1.000000   1.000000
    194         -9.499644       -9.499336   1.000000   1.000000
    195         -9.446307       -9.423677   1.000000   1.000000
    196         -9.402480       -9.379304   1.000000   1.000000
    197         -9.349116       -9.348691   1.000000   1.000000
    198         -9.347011       -9.345465   1.000000   1.000000
    199         -9.305719       -9.296585   1.000000   1.000000
    200         -9.290979       -9.282508   1.000000   1.000000
    201         -9.182792       -9.182719   1.000000   1.000000
    202         -9.179704       -9.179467   1.000000   1.000000
    203         -9.143990       -9.143692   1.000000   1.000000
    204         -9.142570       -9.142510   1.000000   1.000000
    205         -9.117590       -9.105819   1.000000   1.000000
    206         -9.117061       -9.105795   1.000000   1.000000
    207         -9.069894       -9.056946   1.000000   1.000000
    208         -9.058459       -9.045499   1.000000   1.000000
    209         -8.901736       -8.901459   1.000000   1.000000
    210         -8.892544       -8.892135   1.000000   1.000000
    211         -8.826491       -8.824698   1.000000   1.000000
    212         -8.825603       -8.814004   1.000000   1.000000
    213         -8.797818       -8.785517   1.000000   1.000000
    214         -8.797597       -8.779220   1.000000   1.000000
    215         -8.790930       -8.776206   1.000000   1.000000
    216         -8.754482       -8.738228   1.000000   1.000000
    217         -8.698330       -8.697345   1.000000   1.000000
    218         -8.696969       -8.694512   1.000000   1.000000
    219         -8.660881       -8.657652   1.000000   1.000000
    220         -8.647057       -8.639226   1.000000   1.000000
    221         -8.643129       -8.638422   1.000000   1.000000
    222         -8.618487       -8.615789   1.000000   1.000000
    223         -8.586657       -8.576112   1.000000   1.000000
    224         -8.575048       -8.564925   1.000000   1.000000
    225         -8.352452       -8.348831   1.000000   1.000000
    226         -8.339971       -8.339121   1.000000   1.000000
    227         -8.323352       -8.308212   1.000000   1.000000
    228         -8.312148       -8.294889   1.000000   1.000000
    229         -8.282291       -8.271883   1.000000   1.000000
    230         -8.252347       -8.241311   1.000000   1.000000
    231         -8.233528       -8.225701   1.000000   1.000000
    232         -8.215367       -8.204723   1.000000   1.000000
    233         -7.904624       -7.864737   1.000000   1.000000
    234         -7.890835       -7.860471   1.000000   1.000000
    235         -7.858834       -7.844405   1.000000   1.000000
    236         -7.857483       -7.835094   1.000000   1.000000
    237         -7.837452       -7.812701   1.000000   1.000000
    238         -7.814055       -7.808479   1.000000   1.000000
    239         -7.808027       -7.802447   1.000000   1.000000
    240         -7.806282       -7.794547   1.000000   1.000000
    241         -7.798043       -7.760636   1.000000   1.000000
    242         -7.774600       -7.756073   1.000000   1.000000
    243         -7.769019       -7.749117   1.000000   1.000000
    244         -7.756862       -7.744178   1.000000   1.000000
    245         -7.749001       -7.719101   1.000000   1.000000
    246         -7.729049       -7.716377   1.000000   1.000000
    247         -7.722256       -7.710185   1.000000   1.000000
    248         -7.713801       -7.697647   1.000000   1.000000
    249         -7.414603       -7.414243   1.000000   1.000000
    250         -7.389080       -7.388617   1.000000   1.000000
    251         -7.371412       -7.369759   1.000000   1.000000
    252         -7.358765       -7.349019   1.000000   1.000000
    253         -7.349461       -7.340352   1.000000   1.000000
    254         -7.348040       -7.334843   1.000000   1.000000
    255         -7.295837       -7.277603   1.000000   1.000000
    256         -7.292619       -7.276303   1.000000   1.000000
    257         -7.145574       -7.116315   1.000000   1.000000
    258         -7.110050       -7.105920   1.000000   1.000000
    259         -7.107065       -7.093032   1.000000   1.000000
    260         -7.088630       -7.047823   1.000000   1.000000
    261         -7.058719       -7.039910   1.000000   1.000000
    262         -7.045908       -7.029579   1.000000   1.000000
    263         -7.036758       -7.024350   1.000000   1.000000
    264         -7.006885       -7.002056   1.000000   1.000000
    265         -6.989296       -6.979274   1.000000   1.000000
    266         -6.985985       -6.976796   1.000000   1.000000
    267         -6.979031       -6.965728   1.000000   1.000000
    268         -6.977415       -6.951204   1.000000   1.000000
    269         -6.967742       -6.945248   1.000000   1.000000
    270         -6.953048       -6.944272   1.000000   1.000000
    271         -6.951694       -6.937463   1.000000   1.000000
    272         -6.941769       -6.931541   1.000000   1.000000
    273         -6.931016       -6.902392   1.000000   1.000000
    274         -6.930502       -6.883338   1.000000   1.000000
    275         -6.876042       -6.859043   1.000000   1.000000
    276         -6.853577       -6.844769   1.000000   1.000000
    277         -6.849628       -6.834961   1.000000   1.000000
    278         -6.835114       -6.804075   1.000000   1.000000
    279         -6.830019       -6.786806   1.000000   1.000000
    280         -6.811724       -6.781398   1.000000   1.000000
    281         -6.796791       -6.775811   1.000000   1.000000
    282         -6.778047       -6.761782   1.000000   1.000000
    283         -6.768012       -6.730483   1.000000   1.000000
    284         -6.755739       -6.714042   1.000000   1.000000
    285         -6.707380       -6.692509   1.000000   1.000000
    286         -6.700039       -6.692335   1.000000   1.000000
    287         -6.695290       -6.681652   1.000000   1.000000
    288         -6.679482       -6.674088   1.000000   1.000000
    289         -6.665193       -6.657992   1.000000   1.000000
    290         -6.643280       -6.636091   1.000000   1.000000
    291         -6.612787       -6.606213   1.000000   1.000000
    292         -6.603311       -6.599298   1.000000   1.000000
    293         -6.593171       -6.564174   1.000000   1.000000
    294         -6.579502       -6.564035   1.000000   1.000000
    295         -6.546620       -6.538653   1.000000   1.000000
    296         -6.533507       -6.532611   1.000000   1.000000
    297         -6.522071       -6.513443   1.000000   1.000000
    298         -6.514833       -6.507700   1.000000   1.000000
    299         -6.496700       -6.494141   1.000000   1.000000
    300         -6.474274       -6.468417   1.000000   1.000000
    301         -6.415757       -6.414887   1.000000   1.000000
    302         -6.411867       -6.410218   1.000000   1.000000
    303         -6.401213       -6.398378   1.000000   1.000000
    304         -6.396150       -6.393566   1.000000   1.000000
    305         -6.365138       -6.363585   1.000000   1.000000
    306         -6.348139       -6.347161   1.000000   1.000000
    307         -6.335669       -6.334553   1.000000   1.000000
    308         -6.328608       -6.328390   1.000000   1.000000
    309         -6.321411       -6.316740   1.000000   1.000000
    310         -6.316926       -6.314774   1.000000   1.000000
    311         -6.299185       -6.297724   1.000000   1.000000
    312         -6.288202       -6.284864   1.000000   1.000000
    313         -6.281920       -6.280837   1.000000   1.000000
    314         -6.263593       -6.262482   1.000000   1.000000
    315         -6.263442       -6.258553   1.000000   1.000000
    316         -6.261599       -6.256741   1.000000   1.000000
    317         -6.259029       -6.247760   1.000000   1.000000
    318         -6.237851       -6.236358   1.000000   1.000000
    319         -6.236124       -6.221909   1.000000   1.000000
    320         -6.224000       -6.218703   1.000000   1.000000
    321         -6.207925       -6.193611   1.000000   1.000000
    322         -6.195534       -6.188749   1.000000   1.000000
    323         -6.187255       -6.180130   1.000000   1.000000
    324         -6.175960       -6.172143   1.000000   1.000000
    325         -6.170642       -6.155661   1.000000   1.000000
    326         -6.158640       -6.150283   1.000000   1.000000
    327         -6.152735       -6.146593   1.000000   1.000000
    328         -6.137175       -6.133983   1.000000   1.000000
    329         -6.129739       -6.121235   1.000000   1.000000
    330         -6.120706       -6.115878   1.000000   1.000000
    331         -6.116432       -6.113115   1.000000   1.000000
    332         -6.098456       -6.094608   1.000000   1.000000
    333         -6.090535       -6.086760   1.000000   1.000000
    334         -6.085018       -6.071882   1.000000   1.000000
    335         -6.075054       -6.070100   1.000000   1.000000
    336         -6.072387       -6.067963   1.000000   1.000000
    337         -6.058749       -6.053360   1.000000   1.000000
    338         -6.050191       -6.033562   1.000000   1.000000
    339         -6.048120       -6.028434   1.000000   1.000000
    340         -6.036759       -6.011548   1.000000   1.000000
    341         -6.036512       -5.981101   1.000000   1.000000
    342         -6.011266       -5.957112   1.000000   1.000000
    343         -6.000125       -5.937849   1.000000   1.000000
    344         -5.959637       -5.894523   1.000000   1.000000
    345         -5.922925       -5.882330   1.000000   1.000000
    346         -5.878024       -5.862020   1.000000   1.000000
    347         -5.864374       -5.843972   1.000000   1.000000
    348         -5.858884       -5.834836   1.000000   1.000000
    349         -5.808225       -5.793364   1.000000   1.000000
    350         -5.780368       -5.775075   1.000000   1.000000
    351         -5.777195       -5.771367   1.000000   1.000000
    352         -5.770256       -5.768467   1.000000   1.000000
    353         -5.756566       -5.750598   1.000000   1.000000
    354         -5.751935       -5.740807   1.000000   1.000000
    355         -5.692450       -5.689495   1.000000   1.000000
    356         -5.670980       -5.666930   1.000000   1.000000
    357         -5.634830       -5.618548   1.000000   1.000000
    358         -5.611040       -5.600275   1.000000   1.000000
    359         -5.585671       -5.582275   1.000000   1.000000
    360         -5.556596       -5.555779   1.000000   1.000000
    361         -5.435338       -5.424227   1.000000   1.000000
    362         -5.428178       -5.403363   1.000000   1.000000
    363         -5.421170       -5.389723   1.000000   1.000000
    364         -5.398027       -5.343802   1.000000   1.000000
    365         -5.385055       -5.339170   1.000000   1.000000
    366         -5.370344       -5.319673   1.000000   1.000000
    367         -5.360423       -5.300865   1.000000   1.000000
    368         -5.323397       -5.297635   1.000000   1.000000
    369         -5.301845       -5.292743   1.000000   1.000000
    370         -5.288977       -5.266011   1.000000   1.000000
    371         -5.277511       -5.262683   1.000000   1.000000
    372         -5.268348       -5.255466   1.000000   1.000000
    373         -5.260638       -5.248245   1.000000   1.000000
    374         -5.246213       -5.234498   1.000000   1.000000
    375         -5.239496       -5.219161   1.000000   1.000000
    376         -5.227982       -5.209092   1.000000   1.000000
    377         -5.226851       -5.203557   1.000000   1.000000
    378         -5.211456       -5.198896   1.000000   1.000000
    379         -5.198753       -5.183189   1.000000   1.000000
    380         -5.186314       -5.183030   1.000000   1.000000
    381         -5.170170       -5.163693   1.000000   1.000000
    382         -5.163423       -5.159454   1.000000   1.000000
    383         -5.140874       -5.133795   1.000000   1.000000
    384         -5.124868       -5.114167   1.000000   1.000000
    385         -5.116861       -5.110696   1.000000   1.000000
    386         -5.116555       -5.110067   1.000000   1.000000
    387         -5.095070       -5.082297   1.000000   1.000000
    388         -5.092181       -5.081669   1.000000   1.000000
    389         -5.079136       -5.070300   1.000000   1.000000
    390         -5.065819       -5.057913   1.000000   1.000000
    391         -5.049215       -5.027688   1.000000   1.000000
    392         -5.009258       -5.001593   1.000000   1.000000
    393         -4.923576       -4.910934   1.000000   1.000000
    394         -4.909155       -4.884645   1.000000   1.000000
    395         -4.902885       -4.879416   1.000000   1.000000
    396         -4.886066       -4.866134   1.000000   1.000000
    397         -4.862715       -4.857998   1.000000   1.000000
    398         -4.848527       -4.833358   1.000000   1.000000
    399         -4.837142       -4.815232   1.000000   1.000000
    400         -4.803055       -4.791442   1.000000   1.000000
    401         -4.801012       -4.790108   1.000000   1.000000
    402         -4.794277       -4.785885   1.000000   1.000000
    403         -4.788541       -4.766798   1.000000   1.000000
    404         -4.784788       -4.763085   1.000000   1.000000
    405         -4.771181       -4.758174   1.000000   1.000000
    406         -4.769824       -4.744194   1.000000   1.000000
    407         -4.749742       -4.741728   1.000000   1.000000
    408         -4.745430       -4.727301   1.000000   1.000000
    409         -4.732772       -4.725928   1.000000   1.000000
    410         -4.725960       -4.718558   1.000000   1.000000
    411         -4.722075       -4.707828   1.000000   1.000000
    412         -4.714341       -4.699972   1.000000   1.000000
    413         -4.709448       -4.696614   1.000000   1.000000
    414         -4.708105       -4.687800   1.000000   1.000000
    415         -4.695700       -4.678923   1.000000   1.000000
    416         -4.676997       -4.669551   1.000000   1.000000
    417         -4.674570       -4.662451   1.000000   1.000000
    418         -4.664710       -4.641555   1.000000   1.000000
    419         -4.645755       -4.631781   1.000000   1.000000
    420         -4.644070       -4.610645   1.000000   1.000000
    421         -4.618907       -4.606314   1.000000   1.000000
    422         -4.610759       -4.592049   1.000000   1.000000
    423         -4.609832       -4.590189   1.000000   1.000000
    424         -4.591322       -4.583608   1.000000   1.000000
    425         -4.591004       -4.576149   1.000000   1.000000
    426         -4.584147       -4.575761   1.000000   1.000000
    427         -4.577076       -4.565836   1.000000   1.000000
    428         -4.567411       -4.545701   1.000000   1.000000
    429         -4.537588       -4.520892   1.000000   1.000000
    430         -4.535917       -4.514269   1.000000   1.000000
    431         -4.519999       -4.513460   1.000000   1.000000
    432         -4.510664       -4.507246   1.000000   1.000000
    433         -4.509413       -4.493609   1.000000   1.000000
    434         -4.498260       -4.476838   1.000000   1.000000
    435         -4.489779       -4.475093   1.000000   1.000000
    436         -4.465836       -4.452969   1.000000   1.000000
    437         -4.452752       -4.435955   1.000000   1.000000
    438         -4.421285       -4.407058   1.000000   1.000000
    439         -4.398149       -4.390388   1.000000   1.000000
    440         -4.383653       -4.380295   1.000000   1.000000
    441         -4.380688       -4.370287   1.000000   1.000000
    442         -4.356821       -4.354336   1.000000   1.000000
    443         -4.350797       -4.341593   1.000000   1.000000
    444         -4.342201       -4.335480   1.000000   1.000000
    445         -4.324324       -4.307535   1.000000   1.000000
    446         -4.308263       -4.303429   1.000000   1.000000
    447         -4.303183       -4.299636   1.000000   1.000000
    448         -4.301762       -4.290789   1.000000   1.000000
    449         -4.293080       -4.240871   1.000000   1.000000
    450         -4.271324       -4.234206   1.000000   1.000000
    451         -4.247506       -4.211546   1.000000   1.000000
    452         -4.236895       -4.208556   1.000000   1.000000
    453         -4.223327       -4.196266   1.000000   1.000000
    454         -4.216125       -4.195799   1.000000   1.000000
    455         -4.198550       -4.147606   1.000000   1.000000
    456         -4.194930       -4.144705   1.000000   1.000000
    457         -4.158303       -4.109541   1.000000   1.000000
    458         -4.151905       -4.109459   1.000000   1.000000
    459         -4.116112       -3.990763   1.000000   1.000000
    460         -4.110973       -3.931444   1.000000   1.000000
    461         -4.009986       -3.921379   1.000000   1.000000
    462         -4.006033       -3.916115   1.000000   1.000000
    463         -4.003758       -3.912825   1.000000   1.000000
    464         -3.982927       -3.909469   1.000000   1.000000