 vasp.6.3.0 20Jan22 (build Month Day Year Time) complex                        
  
 running on  384 total cores
 distrk:  each k-point on  384 cores,    1 groups
 distr:  one band on NCORE=  16 cores,   24 groups


--------------------------------------------------------------------------------------------------------


 POSCAR: TransitionMetal
  positions in direct lattice
  velocities in cartesian coordinates
 exchange correlation table for  LEXCH =        8
   RHO(1)=    0.500       N(1)  =     2000
   RHO(2)=  100.500       N(2)  =     4000
 


--------------------------------------------------------------------------------------------------------


 ion  position               nearest neighbor table
   1  0.585  0.415  0.752-   9 2.00   5 2.01  13 2.13  25 2.13
   2  0.422  0.582  0.248-  26 1.94  14 1.94  22 1.96  18 1.97  10 1.97   6 1.97
   3  0.415  0.915  0.748-  11 2.00   7 2.01  15 2.13  27 2.13
   4  0.578  0.082  0.252-  28 1.94  16 1.94  24 1.96  20 1.97  12 1.97   8 1.97
   5  0.666  0.337  0.714-  57 1.30   1 2.01
   6  0.336  0.646  0.288-  58 1.30   2 1.97
   7  0.334  0.837  0.786-  59 1.30   3 2.01
   8  0.664  0.146  0.212-  60 1.30   4 1.97
   9  0.683  0.492  0.793- 145 1.30   1 2.00
  10  0.319  0.518  0.199- 146 1.30   2 1.97
  11  0.317  0.992  0.707- 147 1.30   3 2.00
  12  0.681  0.018  0.301- 148 1.30   4 1.97
  13  0.592  0.331  0.839-  85 1.32  89 1.40   1 2.13
  14  0.408  0.651  0.163-  86 1.32  90 1.41   2 1.94
  15  0.408  0.831  0.661-  87 1.32  91 1.40   3 2.13
  16  0.592  0.151  0.337-  88 1.32  92 1.41   4 1.94
  17  0.495  0.468  0.816- 113 1.33 109 1.36
  18  0.504  0.522  0.200- 114 1.33 110 1.38   2 1.97
  19  0.505  0.968  0.684- 115 1.33 111 1.36
  20  0.496  0.022  0.300- 116 1.33 112 1.38   4 1.97
  21  0.469  0.357  0.683- 209 1.33 205 1.36
  22  0.521  0.645  0.303- 210 1.33 206 1.38   2 1.96
  23  0.531  0.857  0.817- 211 1.33 207 1.36
  24  0.479  0.145  0.197- 212 1.33 208 1.38   4 1.96
  25  0.546  0.501  0.668- 181 1.32 185 1.40   1 2.13
  26  0.445  0.512  0.331- 182 1.32 186 1.41   2 1.94
  27  0.454  0.001  0.832- 183 1.32 187 1.40   3 2.13
  28  0.555  0.012  0.169- 184 1.32 188 1.41   4 1.94
  29  0.961  0.119  0.918- 221 1.10 229 1.10 225 1.10  41 1.54
  30  0.061  0.887  0.084- 222 1.10 230 1.10 226 1.10  42 1.54
  31  0.039  0.619  0.582- 223 1.10 231 1.10 227 1.10  43 1.54
  32  0.939  0.387  0.416- 224 1.10 232 1.10 228 1.10  44 1.54
  33  0.847  0.012  0.867- 233 1.10 241 1.10 237 1.10  41 1.54
  34  0.176  0.985  0.148- 234 1.10 242 1.10 238 1.10  42 1.54
  35  0.153  0.512  0.633- 235 1.10 243 1.10 239 1.10  43 1.54
  36  0.824  0.485  0.352- 236 1.10 244 1.10 240 1.10  44 1.54
  37  0.962  0.053  0.799- 253 1.10 249 1.10 245 1.10  41 1.54
  38  0.052  0.942  0.205- 254 1.10 250 1.10 246 1.10  42 1.54
  39  0.038  0.553  0.701- 255 1.10 251 1.10 247 1.10  43 1.54
  40  0.948  0.442  0.295- 256 1.10 252 1.10 248 1.10  44 1.54
  41  0.902  0.085  0.848-  37 1.54  45 1.54  33 1.54  29 1.54
  42  0.116  0.913  0.159-  38 1.54  46 1.54  34 1.54  30 1.54
  43  0.098  0.585  0.652-  39 1.54  47 1.54  35 1.54  31 1.54
  44  0.884  0.413  0.341-  40 1.54  48 1.54  36 1.54  32 1.54
  45  0.838  0.152  0.811-  65 1.38  49 1.42  41 1.54
  46  0.174  0.841  0.193-  66 1.38  50 1.42  42 1.54
  47  0.162  0.652  0.689-  67 1.38  51 1.42  43 1.54
  48  0.826  0.341  0.307-  68 1.38  52 1.42  44 1.54
  49  0.840  0.184  0.742- 257 1.09  53 1.39  45 1.42
  50  0.169  0.807  0.261- 258 1.09  54 1.39  46 1.42
  51  0.160  0.684  0.758- 259 1.09  55 1.39  47 1.42
  52  0.831  0.307  0.239- 260 1.09  56 1.39  48 1.42
  53  0.785  0.246  0.708-  49 1.39  57 1.44  73 1.54
  54  0.221  0.743  0.294-  50 1.39  58 1.45  74 1.54
  55  0.215  0.746  0.792-  51 1.39  59 1.44  75 1.54
  56  0.779  0.243  0.206-  52 1.39  60 1.45  76 1.54
  57  0.719  0.279  0.744-   5 1.30  53 1.44  61 1.45
  58  0.286  0.706  0.258-   6 1.30  54 1.45  62 1.45
  59  0.281  0.779  0.756-   7 1.30  55 1.44  63 1.45
  60  0.714  0.206  0.242-   8 1.30  56 1.45  64 1.45
  61  0.716  0.248  0.815-  65 1.42  85 1.42  57 1.45
  62  0.290  0.739  0.188-  66 1.42  86 1.42  58 1.45
  63  0.284  0.748  0.685-  67 1.42  87 1.42  59 1.45
  64  0.710  0.239  0.312-  68 1.42  88 1.42  60 1.45
  65  0.776  0.186  0.846- 261 1.09  45 1.38  61 1.42
  66  0.234  0.805  0.158- 262 1.09  46 1.38  62 1.42
  67  0.224  0.686  0.654- 263 1.09  47 1.38  63 1.42
  68  0.766  0.305  0.342- 264 1.09  48 1.38  64 1.42
  69  0.866  0.235  0.604- 269 1.10 273 1.10 265 1.10  73 1.54
  70  0.141  0.758  0.398- 270 1.10 274 1.10 266 1.10  74 1.54
  71  0.134  0.735  0.896- 271 1.10 275 1.10 267 1.10  75 1.54
  72  0.859  0.258  0.102- 272 1.10 276 1.10 268 1.10  76 1.54
  73  0.794  0.280  0.635-  69 1.54  53 1.54  81 1.55  77 1.55
  74  0.209  0.709  0.367-  54 1.54  70 1.54  82 1.54  78 1.55
  75  0.206  0.780  0.865-  71 1.54  55 1.54  83 1.55  79 1.55
  76  0.791  0.209  0.133-  56 1.54  72 1.54  84 1.54  80 1.55
  77  0.822  0.371  0.643- 285 1.10 281 1.10 277 1.10  73 1.55
  78  0.177  0.620  0.358- 286 1.10 282 1.10 278 1.10  74 1.55
  79  0.178  0.871  0.857- 287 1.10 283 1.10 279 1.10  75 1.55
  80  0.823  0.120  0.142- 288 1.10 284 1.10 280 1.10  76 1.55
  81  0.706  0.272  0.579- 289 1.10 293 1.10 297 1.10  73 1.55
  82  0.298  0.714  0.423- 290 1.10 294 1.10 298 1.10  74 1.54
  83  0.294  0.772  0.921- 291 1.10 295 1.10 299 1.10  75 1.55
  84  0.702  0.214  0.077- 292 1.10 296 1.10 300 1.10  76 1.54
  85  0.656  0.276  0.857- 301 1.10  13 1.32  61 1.42
  86  0.350  0.711  0.146- 302 1.10  14 1.32  62 1.42
  87  0.344  0.776  0.643- 303 1.10  15 1.32  63 1.42
  88  0.650  0.211  0.354- 304 1.10  16 1.32  64 1.42
  89  0.535  0.347  0.886-  93 1.39  13 1.40 109 1.43
  90  0.467  0.632  0.118-  94 1.39  14 1.41 110 1.42
  91  0.465  0.847  0.614-  95 1.39  15 1.40 111 1.43
  92  0.533  0.132  0.382-  96 1.39  16 1.41 112 1.42
  93  0.522  0.296  0.942- 305 1.09  89 1.39  97 1.41
  94  0.481  0.675  0.058- 306 1.09  90 1.39  98 1.41
  95  0.478  0.796  0.558- 307 1.09  91 1.39  99 1.41
  96  0.519  0.175  0.442- 308 1.09  92 1.39 100 1.41
  97  0.465  0.319  0.987- 309 1.09 101 1.38  93 1.41
  98  0.543  0.647  0.019- 310 1.09 102 1.38  94 1.41
  99  0.535  0.819  0.513- 311 1.09 103 1.38  95 1.41
 100  0.457  0.147  0.481- 312 1.09 104 1.38  96 1.41
 101  0.418  0.391  0.977- 313 1.09  97 1.38 105 1.42
 102  0.591  0.576  0.038- 314 1.09  98 1.38 106 1.42
 103  0.582  0.891  0.523- 315 1.09  99 1.38 107 1.42
 104  0.409  0.076  0.462- 316 1.09 100 1.38 108 1.42
 105  0.426  0.444  0.919- 101 1.42 121 1.42 109 1.43
 106  0.579  0.531  0.099- 102 1.42 122 1.42 110 1.42
 107  0.574  0.944  0.581- 103 1.42 123 1.42 111 1.43
 108  0.421  0.031  0.401- 104 1.42 124 1.42 112 1.42
 109  0.485  0.421  0.874-  17 1.36 105 1.43  89 1.43
 110  0.517  0.560  0.139-  18 1.38  90 1.42 106 1.42
 111  0.515  0.921  0.626-  19 1.36 107 1.43  91 1.43
 112  0.483  0.060  0.361-  20 1.38  92 1.42 108 1.42
 113  0.448  0.537  0.803- 317 1.09  17 1.33 117 1.41
 114  0.550  0.453  0.221- 318 1.09  18 1.33 118 1.41
 115  0.552  0.037  0.697- 319 1.09  19 1.33 119 1.41
 116  0.450  0.953  0.279- 320 1.09  20 1.33 120 1.41
 117  0.388  0.564  0.845- 321 1.09 121 1.38 113 1.41
 118  0.611  0.420  0.183- 322 1.09 122 1.38 114 1.41
 119  0.612  0.064  0.655- 323 1.09 123 1.38 115 1.41
 120  0.389  0.920  0.317- 324 1.09 124 1.38 116 1.41
 121  0.378  0.517  0.903- 325 1.09 117 1.38 105 1.42
 122  0.626  0.458  0.123- 326 1.09 118 1.38 106 1.42
 123  0.622  0.017  0.597- 327 1.09 119 1.38 107 1.42
 124  0.374  0.958  0.377- 328 1.09 120 1.38 108 1.42
 125  0.878  0.462  0.860- 337 1.09 333 1.10 329 1.10 133 1.55
 126  0.125  0.549  0.129- 338 1.09 334 1.10 330 1.10 134 1.55
 127  0.122  0.962  0.640- 339 1.09 335 1.10 331 1.10 135 1.55
 128  0.875  0.049  0.371- 340 1.09 336 1.10 332 1.10 136 1.55
 129  0.793  0.547  0.934- 341 1.10 345 1.10 349 1.10 133 1.55
 130  0.212  0.462  0.057- 342 1.10 346 1.10 350 1.10 134 1.55
 131  0.207  0.047  0.566- 343 1.10 347 1.10 351 1.10 135 1.55
 132  0.788  0.962  0.443- 344 1.10 348 1.10 352 1.10 136 1.55
 133  0.851  0.550  0.877- 137 1.54 141 1.54 125 1.55 129 1.55
 134  0.152  0.461  0.113- 138 1.54 142 1.54 130 1.55 126 1.55
 135  0.149  0.050  0.623- 139 1.54 143 1.54 127 1.55 131 1.55
 136  0.848  0.961  0.387- 140 1.54 144 1.54 132 1.55 128 1.55
 137  0.937  0.596  0.910- 357 1.10 361 1.10 353 1.10 133 1.54
 138  0.066  0.414  0.079- 362 1.10 358 1.10 354 1.10 134 1.54
 139  0.063  0.096  0.590- 359 1.10 363 1.10 355 1.10 135 1.54
 140  0.934  0.914  0.421- 364 1.10 360 1.10 356 1.10 136 1.54
 141  0.800  0.590  0.807- 161 1.39 145 1.44 133 1.54
 142  0.201  0.421  0.184- 162 1.39 146 1.45 134 1.54
 143  0.200  0.090  0.693- 163 1.39 147 1.44 135 1.54
 144  0.799  0.921  0.316- 164 1.39 148 1.45 136 1.54
 145  0.717  0.556  0.769-   9 1.30 141 1.44 149 1.45
 146  0.283  0.456  0.224-  10 1.30 142 1.45 150 1.45
 147  0.283  0.056  0.731-  11 1.30 143 1.44 151 1.45
 148  0.717  0.956  0.276-  12 1.30 144 1.45 152 1.45
 149  0.673  0.595  0.702- 153 1.42 181 1.42 145 1.45
 150  0.321  0.418  0.293- 154 1.42 182 1.42 146 1.45
 151  0.327  0.095  0.798- 155 1.42 183 1.42 147 1.45
 152  0.679  0.918  0.207- 156 1.42 184 1.42 148 1.45
 153  0.711  0.666  0.678- 365 1.09 157 1.38 149 1.42
 154  0.281  0.347  0.316- 366 1.09 158 1.38 150 1.42
 155  0.289  0.166  0.822- 367 1.09 159 1.38 151 1.42
 156  0.719  0.847  0.184- 368 1.09 160 1.38 152 1.42
 157  0.789  0.700  0.716- 153 1.38 161 1.42 169 1.54
 158  0.206  0.312  0.276- 154 1.38 162 1.42 170 1.54
 159  0.211  0.200  0.784- 155 1.38 163 1.42 171 1.54
 160  0.794  0.812  0.224- 156 1.38 164 1.42 172 1.54
 161  0.832  0.660  0.780- 369 1.09 141 1.39 157 1.42
 162  0.167  0.351  0.211- 370 1.09 142 1.39 158 1.42
 163  0.168  0.160  0.720- 371 1.09 143 1.39 159 1.42
 164  0.833  0.851  0.289- 372 1.09 144 1.39 160 1.42
 165  0.823  0.777  0.608- 377 1.10 381 1.10 373 1.10 169 1.54
 166  0.157  0.242  0.380- 378 1.10 382 1.10 374 1.10 170 1.54
 167  0.177  0.277  0.892- 379 1.10 383 1.10 375 1.10 171 1.54
 168  0.843  0.742  0.120- 380 1.10 384 1.10 376 1.10 172 1.54
 169  0.825  0.780  0.690- 177 1.54 157 1.54 165 1.54 173 1.54
 170  0.169  0.232  0.302- 178 1.54 158 1.54 174 1.54 166 1.54
 171  0.175  0.280  0.810- 179 1.54 159 1.54 167 1.54 175 1.54
 172  0.831  0.732  0.198- 180 1.54 160 1.54 176 1.54 168 1.54
 173  0.766  0.851  0.705- 389 1.10 385 1.10 393 1.10 169 1.54
 174  0.235  0.162  0.300- 390 1.10 386 1.10 394 1.10 170 1.54
 175  0.234  0.351  0.795- 391 1.10 387 1.10 395 1.10 171 1.54
 176  0.765  0.662  0.200- 392 1.10 388 1.10 396 1.10 172 1.54
 177  0.921  0.798  0.729- 401 1.10 405 1.10 397 1.10 169 1.54
 178  0.079  0.208  0.255- 402 1.10 398 1.10 406 1.10 170 1.54
 179  0.079  0.298  0.771- 403 1.10 407 1.10 399 1.10 171 1.54
 180  0.921  0.708  0.245- 404 1.10 400 1.10 408 1.10 172 1.54
 181  0.594  0.565  0.657- 409 1.10  25 1.32 149 1.42
 182  0.398  0.448  0.341- 410 1.10  26 1.32 150 1.42
 183  0.406  0.065  0.843- 411 1.10  27 1.32 151 1.42
 184  0.602  0.948  0.159- 412 1.10  28 1.32 152 1.42
 185  0.468  0.482  0.617- 189 1.39  25 1.40 205 1.44
 186  0.523  0.532  0.381- 190 1.39  26 1.41 206 1.42
 187  0.532  0.982  0.883- 191 1.39  27 1.40 207 1.44
 188  0.477  0.032  0.119- 192 1.39  28 1.41 208 1.42
 189  0.425  0.531  0.561- 413 1.09 185 1.39 193 1.41
 190  0.565  0.488  0.442- 414 1.09 186 1.39 194 1.41
 191  0.575  0.031  0.939- 415 1.09 187 1.39 195 1.41
 192  0.435  0.988  0.058- 416 1.09 188 1.39 196 1.41
 193  0.348  0.504  0.512- 417 1.09 197 1.38 189 1.41
 194  0.643  0.518  0.487- 418 1.09 198 1.38 190 1.41
 195  0.652  0.004  0.988- 419 1.09 199 1.38 191 1.41
 196  0.357  0.018  0.013- 420 1.09 200 1.38 192 1.41
 197  0.311  0.429  0.520- 421 1.09 193 1.38 201 1.42
 198  0.680  0.591  0.473- 422 1.09 194 1.38 202 1.42
 199  0.689  0.929  0.980- 423 1.09 195 1.38 203 1.42
 200  0.320  0.091  0.027- 424 1.09 196 1.38 204 1.42
 201  0.350  0.377  0.577- 197 1.42 217 1.42 205 1.43
 202  0.641  0.638  0.412- 198 1.42 218 1.42 206 1.42
 203  0.650  0.877  0.923- 199 1.42 219 1.42 207 1.43
 204  0.359  0.138  0.088- 200 1.42 220 1.42 208 1.42
 205  0.429  0.404  0.626-  21 1.36 201 1.43 185 1.44
 206  0.563  0.607  0.365-  22 1.38 186 1.42 202 1.42
 207  0.571  0.904  0.874-  23 1.36 203 1.43 187 1.44
 208  0.437  0.107  0.135-  24 1.38 188 1.42 204 1.42
 209  0.436  0.284  0.693- 425 1.09  21 1.33 213 1.41
 210  0.554  0.717  0.288- 426 1.09  22 1.33 214 1.41
 211  0.564  0.784  0.807- 427 1.09  23 1.33 215 1.41
 212  0.446  0.217  0.212- 428 1.09  24 1.33 216 1.41
 213  0.359  0.252  0.647- 429 1.09 217 1.38 209 1.41
 214  0.630  0.753  0.332- 430 1.09 218 1.38 210 1.41
 215  0.641  0.752  0.853- 431 1.09 219 1.38 211 1.41
 216  0.370  0.253  0.168- 432 1.09 220 1.38 212 1.41
 217  0.316  0.299  0.590- 433 1.09 213 1.38 201 1.42
 218  0.674  0.714  0.393- 434 1.09 214 1.38 202 1.42
 219  0.684  0.799  0.910- 435 1.09 215 1.38 203 1.42
 220  0.326  0.214  0.107- 436 1.09 216 1.38 204 1.42
 221  1.000  0.171  0.906-  29 1.10
 222  0.018  0.834  0.089-  30 1.10
 223  0.000  0.671  0.594-  31 1.10
 224  0.982  0.334  0.411-  32 1.10
 225  0.007  0.071  0.944-  29 1.10
 226  0.018  0.938  0.060-  30 1.10
 227  0.993  0.571  0.556-  31 1.10
 228  0.982  0.438  0.440-  32 1.10
 229  0.921  0.139  0.956-  29 1.10
 230  0.104  0.869  0.048-  30 1.10
 231  0.079  0.639  0.544-  31 1.10
 232  0.896  0.369  0.452-  32 1.10
 233  0.805  0.030  0.904-  33 1.10
 234  0.222  0.969  0.113-  34 1.10
 235  0.195  0.530  0.596-  35 1.10
 236  0.778  0.469  0.387-  36 1.10
 237  0.892  0.963  0.893-  33 1.10
 238  0.136  0.037  0.124-  34 1.10
 239  0.108  0.463  0.607-  35 1.10
 240  0.864  0.537  0.376-  36 1.10
 241  0.804  0.986  0.819-  33 1.10
 242  0.216  0.005  0.200-  34 1.10
 243  0.196  0.486  0.681-  35 1.10
 244  0.784  0.505  0.300-  36 1.10
 245  0.924  0.027  0.749-  37 1.10
 246  0.087  0.964  0.258-  38 1.10
 247  0.076  0.527  0.751-  39 1.10
 248  0.913  0.464  0.242-  40 1.10
 249  0.005  0.004  0.827-  37 1.10
 250  0.012  0.993  0.178-  38 1.10
 251  0.995  0.504  0.673-  39 1.10
 252  0.988  0.493  0.322-  40 1.10
 253  0.006  0.101  0.786-  37 1.10
 254  0.005  0.894  0.213-  38 1.10
 255  0.994  0.601  0.714-  39 1.10
 256  0.995  0.394  0.287-  40 1.10
 257  0.889  0.159  0.714-  49 1.09
 258  0.122  0.834  0.289-  50 1.09
 259  0.111  0.659  0.786-  51 1.09
 260  0.878  0.334  0.211-  52 1.09
 261  0.772  0.164  0.900-  65 1.09
 262  0.241  0.828  0.106-  66 1.09
 263  0.228  0.664  0.600-  67 1.09
 264  0.759  0.328  0.394-  68 1.09
 265  0.850  0.169  0.596-  69 1.10
 266  0.159  0.823  0.407-  70 1.10
 267  0.150  0.669  0.904-  71 1.10
 268  0.841  0.323  0.093-  72 1.10
 269  0.932  0.241  0.639-  69 1.10
 270  0.074  0.755  0.363-  70 1.10
 271  0.068  0.741  0.861-  71 1.10
 272  0.926  0.255  0.137-  72 1.10
 273  0.869  0.261  0.552-  69 1.10
 274  0.136  0.732  0.450-  70 1.10
 275  0.131  0.761  0.948-  71 1.10
 276  0.864  0.232  0.050-  72 1.10
 277  0.829  0.396  0.591-  77 1.10
 278  0.167  0.595  0.410-  78 1.10
 279  0.171  0.896  0.909-  79 1.10
 280  0.833  0.095  0.090-  80 1.10
 281  0.886  0.377  0.681-  77 1.10
 282  0.113  0.616  0.319-  78 1.10
 283  0.114  0.877  0.819-  79 1.10
 284  0.887  0.116  0.181-  80 1.10
 285  0.772  0.407  0.663-  77 1.10
 286  0.225  0.581  0.338-  78 1.10
 287  0.228  0.907  0.837-  79 1.10
 288  0.775  0.081  0.162-  80 1.10
 289  0.652  0.303  0.597-  81 1.10
 290  0.350  0.679  0.406-  82 1.10
 291  0.348  0.803  0.903-  83 1.10
 292  0.650  0.179  0.094-  84 1.10
 293  0.688  0.207  0.568-  81 1.10
 294  0.320  0.778  0.432-  82 1.10
 295  0.312  0.707  0.932-  83 1.10
 296  0.680  0.278  0.068-  84 1.10
 297  0.714  0.299  0.528-  81 1.10
 298  0.289  0.690  0.475-  82 1.10
 299  0.286  0.799  0.972-  83 1.10
 300  0.711  0.190  0.025-  84 1.10
 301  0.667  0.250  0.911-  85 1.10
 302  0.345  0.742  0.094-  86 1.10
 303  0.333  0.750  0.589-  87 1.10
 304  0.655  0.242  0.406-  88 1.10
 305  0.557  0.238  0.951-  93 1.09
 306  0.445  0.732  0.042-  94 1.09
 307  0.443  0.738  0.549-  95 1.09
 308  0.555  0.232  0.458-  96 1.09
 309  0.458  0.278  0.031-  97 1.09
 310  0.552  0.682  0.972-  98 1.09
 311  0.542  0.778  0.469-  99 1.09
 312  0.448  0.182  0.528- 100 1.09
 313  0.374  0.409  0.012- 101 1.09
 314  0.638  0.555  0.007- 102 1.09
 315  0.626  0.909  0.488- 103 1.09
 316  0.362  0.055  0.493- 104 1.09
 317  0.457  0.572  0.757- 113 1.09
 318  0.538  0.424  0.269- 114 1.09
 319  0.543  0.072  0.743- 115 1.09
 320  0.462  0.924  0.231- 116 1.09
 321  0.351  0.620  0.831- 117 1.09
 322  0.646  0.364  0.204- 118 1.09
 323  0.649  0.120  0.669- 119 1.09
 324  0.354  0.864  0.296- 120 1.09
 325  0.332  0.536  0.937- 121 1.09
 326  0.674  0.434  0.093- 122 1.09
 327  0.668  0.036  0.563- 123 1.09
 328  0.326  0.934  0.407- 124 1.09
 329  0.914  0.433  0.910- 125 1.10
 330  0.090  0.578  0.079- 126 1.10
 331  0.086  0.933  0.590- 127 1.10
 332  0.910  0.078  0.421- 128 1.10
 333  0.921  0.463  0.822- 125 1.10
 334  0.080  0.548  0.166- 126 1.10
 335  0.079  0.963  0.678- 127 1.10
 336  0.920  0.048  0.334- 128 1.10
 337  0.819  0.425  0.838- 125 1.09
 338  0.183  0.586  0.152- 126 1.09
 339  0.181  0.925  0.662- 127 1.09
 340  0.817  0.086  0.348- 128 1.09
 341  0.731  0.514  0.915- 129 1.10
 342  0.273  0.496  0.078- 130 1.10
 343  0.269  0.014  0.585- 131 1.10
 344  0.727  0.996  0.422- 132 1.10
 345  0.777  0.610  0.949- 129 1.10
 346  0.228  0.400  0.043- 130 1.10
 347  0.223  0.110  0.551- 131 1.10
 348  0.772  0.900  0.457- 132 1.10
 349  0.830  0.517  0.983- 129 1.10
 350  0.176  0.492  0.008- 130 1.10
 351  0.170  0.017  0.517- 131 1.10
 352  0.824  0.992  0.492- 132 1.10
 353  0.924  0.660  0.925- 137 1.10
 354  0.080  0.351  0.065- 138 1.10
 355  0.076  0.160  0.575- 139 1.10
 356  0.920  0.851  0.435- 140 1.10
 357  0.984  0.598  0.874- 137 1.10
 358  0.018  0.413  0.114- 138 1.10
 359  0.016  0.098  0.626- 139 1.10
 360  0.982  0.913  0.386- 140 1.10
 361  0.970  0.565  0.960- 137 1.10
 362  0.034  0.446  0.029- 138 1.10
 363  0.030  0.065  0.540- 139 1.10
 364  0.966  0.946  0.471- 140 1.10
 365  0.675  0.694  0.628- 153 1.09
 366  0.314  0.321  0.368- 154 1.09
 367  0.325  0.194  0.872- 155 1.09
 368  0.686  0.821  0.132- 156 1.09
 369  0.894  0.686  0.809- 161 1.09
 370  0.106  0.325  0.179- 162 1.09
 371  0.106  0.186  0.691- 163 1.09
 372  0.894  0.825  0.321- 164 1.09
 373  0.850  0.833  0.591- 165 1.10
 374  0.128  0.186  0.398- 166 1.10
 375  0.150  0.333  0.909- 167 1.10
 376  0.872  0.686  0.102- 168 1.10
 377  0.754  0.770  0.577- 165 1.10
 378  0.220  0.254  0.417- 166 1.10
 379  0.246  0.270  0.923- 167 1.10
 380  0.780  0.754  0.083- 168 1.10
 381  0.862  0.725  0.595- 165 1.10
 382  0.111  0.293  0.384- 166 1.10
 383  0.138  0.225  0.905- 167 1.10
 384  0.889  0.793  0.116- 168 1.10
 385  0.767  0.856  0.763- 173 1.10
 386  0.245  0.152  0.245- 174 1.10
 387  0.233  0.356  0.737- 175 1.10
 388  0.755  0.652  0.255- 176 1.10
 389  0.696  0.842  0.677- 173 1.10
 390  0.300  0.176  0.334- 174 1.10
 391  0.304  0.342  0.823- 175 1.10
 392  0.700  0.676  0.166- 176 1.10
 393  0.788  0.910  0.687- 173 1.10
 394  0.211  0.105  0.319- 174 1.10
 395  0.212  0.410  0.813- 175 1.10
 396  0.789  0.605  0.181- 176 1.10
 397  0.944  0.854  0.707- 177 1.10
 398  0.055  0.151  0.275- 178 1.10
 399  0.056  0.354  0.793- 179 1.10
 400  0.945  0.651  0.225- 180 1.10
 401  0.967  0.749  0.722- 177 1.10
 402  0.028  0.255  0.254- 178 1.10
 403  0.033  0.249  0.778- 179 1.10
 404  0.972  0.755  0.246- 180 1.10
 405  0.927  0.808  0.787- 177 1.10
 406  0.084  0.196  0.199- 178 1.10
 407  0.073  0.308  0.713- 179 1.10
 408  0.916  0.696  0.301- 180 1.10
 409  0.574  0.600  0.607- 181 1.10
 410  0.418  0.413  0.391- 182 1.10
 411  0.426  0.100  0.893- 183 1.10
 412  0.582  0.913  0.109- 184 1.10
 413  0.450  0.591  0.553- 189 1.09
 414  0.538  0.430  0.455- 190 1.09
 415  0.550  0.091  0.947- 191 1.09
 416  0.462  0.930  0.045- 192 1.09
 417  0.317  0.544  0.468- 193 1.09
 418  0.674  0.482  0.534- 194 1.09
 419  0.683  0.044  0.032- 195 1.09
 420  0.326  0.982  0.966- 196 1.09
 421  0.251  0.408  0.482- 197 1.09
 422  0.741  0.614  0.509- 198 1.09
 423  0.749  0.908  0.018- 199 1.09
 424  0.259  0.114  0.991- 200 1.09
 425  0.470  0.250  0.739- 209 1.09
 426  0.520  0.747  0.239- 210 1.09
 427  0.530  0.750  0.761- 211 1.09
 428  0.480  0.247  0.261- 212 1.09
 429  0.334  0.193  0.658- 213 1.09
 430  0.653  0.812  0.316- 214 1.09
 431  0.666  0.693  0.842- 215 1.09
 432  0.347  0.312  0.184- 216 1.09
 433  0.256  0.277  0.553- 217 1.09
 434  0.733  0.740  0.427- 218 1.09
 435  0.744  0.777  0.947- 219 1.09
 436  0.267  0.240  0.073- 220 1.09
 
  LATTYP: Found a simple monoclinic cell.
 ALAT       =    15.4057383227
 B/A-ratio  =     1.0625024363
 C/A-ratio  =     1.2348351052
 COS(beta)  =    -0.2119417549
  
  Lattice vectors:
  
 A1 = (  15.4050678300,   0.0000000000,  -0.1437303804)
 A2 = (   0.0000000000,  16.3686345008,   0.0000000000)
 A3 = (  -3.8582570469,   0.0000000000,  18.6281822548)


Analysis of symmetry for initial positions (statically):
=====================================================================
 Subroutine PRICEL returns:
 Original cell was already a primitive cell.
 

 Routine SETGRP: Setting up the symmetry group for a 
 simple monoclinic supercell.


 Subroutine GETGRP returns: Found  2 space group operations
 (whereof  1 operations were pure point group operations)
 out of a pool of  4 trial point group operations.


The static configuration has the point symmetry C_1 .
 The point group associated with its full space group is C_2 .


Analysis of symmetry for dynamics (positions and initial velocities):
=====================================================================
 Subroutine PRICEL returns:
 Original cell was already a primitive cell.
 

 Routine SETGRP: Setting up the symmetry group for a 
 simple monoclinic supercell.


 Subroutine GETGRP returns: Found  2 space group operations
 (whereof  1 operations were pure point group operations)
 out of a pool of  4 trial point group operations.


The dynamic configuration has the point symmetry C_1 .
 The point group associated with its full space group is C_2 .


Analysis of structural, dynamic, and magnetic symmetry:
=====================================================================
 Subroutine PRICEL returns:
 Original cell was already a primitive cell.
 

 Routine SETGRP: Setting up the symmetry group for a 
 simple monoclinic supercell.


 Subroutine GETGRP returns: Found  2 space group operations
 (whereof  1 operations were pure point group operations)
 out of a pool of  4 trial point group operations.


The overall configuration has the point symmetry C_1 .
 The point group associated with its full space group is C_2 .


 Subroutine INISYM returns: Found  2 space group operations
 (whereof  1 operations are pure point group operations),
 and found     1 'primitive' translations


----------------------------------------------------------------------------------------

                                     Primitive cell                                     

  volume of cell :    4688.2038

  direct lattice vectors                    reciprocal lattice vectors
    15.405067830  0.000000000 -0.143730380     0.065039388  0.000000000  0.013470916
     0.000000000 16.368634501  0.000000000     0.000000000  0.061092451  0.000000000
    -3.858257047  0.000000000 18.628182255     0.000501828  0.000000000  0.053786041

  length of vectors
    15.405738323 16.368634501 19.023546503     0.066419783  0.061092451  0.053788382

  position of ions in fractional coordinates (direct lattice)
     0.585331531  0.414797677  0.752285673
     0.422139712  0.582408696  0.247537266
     0.414668469  0.914797677  0.747714327
     0.577860288  0.082408696  0.252462734
     0.665518404  0.336734927  0.714359092
     0.336066541  0.646332909  0.288223521
     0.334481596  0.836734957  0.785640908
     0.663933459  0.146332939  0.211776479
     0.682946748  0.492358548  0.793447890
     0.319268747  0.517504506  0.198906207
     0.317053252  0.992358577  0.706552110
     0.680731253  0.017504535  0.301093793
     0.591958242  0.330896028  0.838888771
     0.408192875  0.651351154  0.163207883
     0.408041758  0.830896058  0.661111229
     0.591807125  0.151351184  0.336792117
     0.494707124  0.468178841  0.816485160
     0.503776756  0.521797223  0.200061446
     0.505292846  0.968178871  0.683514840
     0.496223214  0.021797253  0.299938554
     0.469330888  0.357161300  0.683390129
     0.521158181  0.645427160  0.303120468
     0.530669142  0.857161330  0.816609871
     0.478841849  0.145427190  0.196879532
     0.545618001  0.501193342  0.667701530
     0.445344182  0.511728396  0.330961773
     0.454381999  0.001193342  0.832298470
     0.554655818  0.011728396  0.169038227
     0.960549103  0.118637126  0.917661454
     0.060776220  0.886838476  0.084476130
     0.039450897  0.618637126  0.582338546
     0.939223780  0.386838476  0.415523870
     0.847319427  0.011960790  0.867187528
     0.176132999  0.984966409  0.148384145
     0.152680573  0.511960815  0.632812472
     0.823867001  0.484966439  0.351615855
     0.962330814  0.052855315  0.799499734
     0.051528581  0.941997073  0.205096778
     0.037669186  0.552855322  0.700500266
     0.948471419  0.441997073  0.294903222
     0.901523643  0.084697000  0.847882313
     0.115858761  0.912574418  0.158739030
     0.098476357  0.584696970  0.652117687
     0.884141239  0.412574388  0.341260970
     0.838036993  0.152109844  0.811418982
     0.173762419  0.840559340  0.193133312
     0.161963007  0.652109859  0.688581018
     0.826237581  0.340559340  0.306866688
     0.840004639  0.183918771  0.742390089
     0.169471546  0.807010632  0.261005675
     0.159995361  0.683918786  0.757609911
     0.830528454  0.307010632  0.238994325
     0.784744089  0.245751518  0.708198462
     0.221421990  0.742503454  0.294144018
     0.215255911  0.745751503  0.791801538
     0.778578010  0.242503454  0.205855982
     0.719117711  0.279458590  0.744080029
     0.285838840  0.705985255  0.258142907
     0.280882289  0.779458590  0.755919971
     0.714161160  0.205985255  0.241857093
     0.715958939  0.247750916  0.814618488
     0.290359546  0.739434655  0.188407695
     0.284041061  0.747750931  0.685381512
     0.709640454  0.239434655  0.311592305
     0.776190481  0.185666703  0.846018270
     0.234382084  0.805078269  0.158459536
     0.223809519  0.685666733  0.653981730
     0.765617916  0.305078299  0.341540464
     0.865513649  0.234658676  0.604245887
     0.140626202  0.757906025  0.397980851
     0.134486351  0.734658706  0.895754113
     0.859373798  0.257906055  0.102019149
     0.794238462  0.279936558  0.634782604
     0.209456784  0.709236787  0.367122301
     0.205761538  0.779936558  0.865217396
     0.790543216  0.209236787  0.132877699
     0.821680748  0.370875981  0.643323341
     0.177087265  0.619690134  0.357982132
     0.178319252  0.870876010  0.856676659
     0.822912735  0.119690163  0.142017868
     0.705940665  0.272023194  0.578779936
     0.297963561  0.714107431  0.423032981
     0.294059335  0.772023224  0.921220064
     0.702036439  0.214107461  0.076967019
     0.656240492  0.276467797  0.856874083
     0.349719247  0.710556811  0.146119084
     0.343759508  0.776467768  0.643125917
     0.650280753  0.210556782  0.353880916
     0.535459935  0.347077955  0.886067918
     0.466524486  0.631900619  0.117929117
     0.464540065  0.847077955  0.613932082
     0.533475514  0.131900619  0.382070883
     0.522184300  0.296492395  0.941764713
     0.480864824  0.675373676  0.058499048
     0.477815700  0.796492395  0.558235287
     0.519135176  0.175373676  0.441500952
     0.464691866  0.319125062  0.987048409
     0.542669761  0.647232635  0.018905593
     0.535308104  0.819125033  0.512951591
     0.457330209  0.147232606  0.481094407
     0.417685077  0.391496021  0.976878544
     0.590745270  0.576369919  0.037735928
     0.582314923  0.891496021  0.523121456
     0.409254730  0.076369919  0.462264072
     0.426022451  0.443573119  0.919149584
     0.579107292  0.531009802  0.098554910
     0.573977549  0.943573149  0.580850416
     0.420892708  0.031009832  0.401445090
     0.484863179  0.421203658  0.873563583
     0.517340866  0.560006163  0.138790386
     0.515136821  0.921203688  0.626436417
     0.482659134  0.060006193  0.361209614
     0.447923664  0.536725571  0.803191026
     0.549520149  0.453498260  0.220532182
     0.552076336  0.036725571  0.696808974
     0.450479851  0.953498260  0.279467818
     0.388354598  0.563835804  0.845202396
     0.610909139  0.419829857  0.183235929
     0.611645432  0.063835804  0.654797604
     0.389090891  0.919829857  0.316764071
     0.377558926  0.517309533  0.903120675
     0.626349736  0.458435362  0.122691519
     0.622441074  0.017309533  0.596879325
     0.373650264  0.958435362  0.377308481
     0.877712640  0.462022030  0.860499509
     0.125040266  0.548787870  0.128739354
     0.122287360  0.962022000  0.639500491
     0.874959734  0.048787840  0.371260646
     0.793356676  0.547289228  0.934364339
     0.211503431  0.462324030  0.057443651
     0.206643324  0.047289228  0.565635661
     0.788496569  0.962324030  0.442556349
     0.851016259  0.549875324  0.877014180
     0.151870444  0.460643094  0.113323987
     0.148983741  0.049875324  0.622985820
     0.848129556  0.960643094  0.386676013
     0.936671753  0.596299767  0.910093945
     0.066436953  0.414473397  0.078920641
     0.063328247  0.096299767  0.589906055
     0.933563047  0.914473397  0.421079359
     0.799833781  0.590465821  0.807499217
     0.200985651  0.420671869  0.183863831
     0.200166219  0.090465821  0.692500783
     0.799014349  0.920671869  0.316136169
     0.716934066  0.556034830  0.769045855
     0.282828039  0.455748757  0.224427012
     0.283065934  0.056034830  0.730954145
     0.717171961  0.955748757  0.275572988
     0.673305916  0.594815599  0.702371137
     0.320534787  0.418161908  0.293189023
     0.326694084  0.094815599  0.797628863
     0.679465213  0.918161908  0.206810977
     0.711110410  0.665981488  0.678155322
     0.281276749  0.347278597  0.316195029
     0.288889590  0.165981488  0.821844678
     0.718723251  0.847278597  0.183804971
     0.789322803  0.700196977  0.715502223
     0.205617673  0.311603902  0.276110666
     0.210677197  0.200196977  0.784497777
     0.794382327  0.811603902  0.223889334
     0.831902941  0.660129190  0.779786911
     0.166919648  0.351244953  0.210627985
     0.168097059  0.160129190  0.720213089
     0.833080352  0.851244953  0.289372015
     0.822521567  0.776622834  0.608424122
     0.156501138  0.242095105  0.379762005
     0.177478433  0.276622834  0.891575878
     0.843498862  0.742095105  0.120237995
     0.825051491  0.780102245  0.689872114
     0.168681423  0.232244656  0.301741756
     0.174948509  0.280102245  0.810127886
     0.831318577  0.732244656  0.198258244
     0.765654835  0.851041790  0.705004577
     0.235125058  0.162222412  0.299549013
     0.234345165  0.351041790  0.794995423
     0.764874942  0.662222412  0.200450987
     0.921133829  0.798263456  0.728748974
     0.078738986  0.207816191  0.254584268
     0.078866171  0.298263456  0.771251026
     0.921261014  0.707816191  0.245415732
     0.594115400  0.564957454  0.656941601
     0.397700524  0.447668522  0.341071369
     0.405884600  0.064957454  0.843058399
     0.602299476  0.947668522  0.158928631
     0.467707650  0.481859721  0.617387701
     0.523049852  0.532118174  0.381385900
     0.532292320  0.981859751  0.882612299
     0.476950118  0.032118204  0.118614100
     0.424577425  0.530932546  0.560748978
     0.564679898  0.488072434  0.441824821
     0.575422575  0.030932546  0.939251022
     0.435320102  0.988072434  0.058175179
     0.347503114  0.504096223  0.512361625
     0.643058613  0.517777627  0.486865771
     0.652496886  0.004096223  0.987638375
     0.356941387  0.017777627  0.013134229
     0.310640791  0.428511988  0.519708010
     0.680413111  0.591253678  0.472962459
     0.689359239  0.928511988  0.980291990
     0.319586919  0.091253678  0.027037541
     0.350419697  0.376987685  0.577418347
     0.640535367  0.637650524  0.411643429
     0.649580332  0.876987656  0.922581653
     0.359464662  0.137650495  0.088356571
     0.428714337  0.403907220  0.626458690
     0.562589245  0.606529740  0.365465681
     0.571285633  0.903907220  0.873541310
     0.437410725  0.106529740  0.134534319
     0.435714089  0.284255030  0.692813258
     0.554141609  0.717161870  0.288036517
     0.564285940  0.784255000  0.807186742
     0.445858420  0.217161840  0.211963483
     0.359178486  0.252348412  0.646929840
     0.629593365  0.753435131  0.331801619
     0.640821485  0.752348412  0.853070160
     0.370406606  0.253435131  0.168198381
     0.316409476  0.298889258  0.589597361
     0.673642896  0.713693423  0.392892510
     0.683590524  0.798889258  0.910402639
     0.326357104  0.213693423  0.107107490
     0.999641915  0.171221949  0.906133197
     0.018036219  0.834300351  0.089317949
     0.000358085  0.671221979  0.593866803
     0.981963781  0.334300381  0.410682051
     0.006843001  0.071355043  0.944394708
     0.018261764  0.937599174  0.059576037
     0.993156999  0.571355043  0.555605292
     0.981738236  0.437599174  0.440423963
     0.920518447  0.138930756  0.955833768
     0.103638416  0.869433145  0.047537073
     0.079481553  0.638930756  0.544166232
     0.896361584  0.369433145  0.452462927
     0.804861733  0.029906212  0.904201551
     0.221768037  0.968563773  0.113438042
     0.195138267  0.529906193  0.595798449
     0.778231963  0.468563743  0.386561958
     0.892053846  0.963286461  0.893386206
     0.135773515  0.037045511  0.123509635
     0.107946154  0.463286461  0.606613794
     0.864226485  0.537045526  0.376490365
     0.804284423  0.986277261  0.818750787
     0.216292805  0.005275590  0.200215354
     0.195715577  0.486277261  0.681249213
     0.783707195  0.505275586  0.299784646
     0.923950754  0.027101244  0.748992724
     0.087067055  0.963506032  0.258199427
     0.076049246  0.527101265  0.751007276
     0.912932945  0.463506062  0.241800573
     0.005100006  0.004001636  0.827498926
     0.011952105  0.993450709  0.178339301
     0.994899994  0.504001641  0.672501074
     0.988047895  0.493450709  0.321660699
     0.006280035  0.100631117  0.786101090
     0.004724429  0.894029357  0.213284593
     0.993719965  0.600631132  0.713898910
     0.995275571  0.394029357  0.286715407
     0.888591311  0.158509065  0.714485844
     0.121983300  0.833653367  0.289334253
     0.111408689  0.658509050  0.785514156
     0.878016700  0.333653367  0.210665747
     0.771529749  0.164175367  0.899512413
     0.241360054  0.827554240  0.105808881
     0.228470251  0.664175337  0.600487587
     0.758639946  0.327554210  0.394191119
     0.850389144  0.169251101  0.595871572
     0.159255001  0.822562233  0.406905466
     0.149610856  0.669251131  0.904128428
     0.840744999  0.322562263  0.093094534
     0.931825293  0.240532734  0.639198837
     0.073965638  0.754984552  0.363209811
     0.068174707  0.740532719  0.860801163
     0.926034362  0.254984552  0.136790189
     0.868923462  0.260917230  0.551689178
     0.136031079  0.731916251  0.450377801
     0.131076538  0.760917200  0.948310822
     0.863968921  0.231916221  0.049622199
     0.829307315  0.395823813  0.591180080
     0.167309473  0.595385149  0.409752874
     0.170692685  0.895823813  0.908819920
     0.832690527  0.095385149  0.090247126
     0.885719790  0.377454563  0.681491562
     0.113039339  0.616042608  0.319409072
     0.114280210  0.877454533  0.818508438
     0.886960661  0.116042578  0.180590928
     0.772126373  0.407268149  0.663081781
     0.224785867  0.580851762  0.338303551
     0.227873627  0.907268149  0.836918219
     0.775214133  0.080851762  0.161696449
     0.651581133  0.302964683  0.596970998
     0.350343120  0.679296957  0.405537090
     0.348418867  0.802964712  0.903029002
     0.649656880  0.179296986  0.094462910
     0.688073567  0.207412191  0.568430276
     0.319966135  0.777893968  0.431888734
     0.311926433  0.707412206  0.931569724
     0.680033865  0.277893968  0.068111266
     0.713691906  0.299423577  0.527545624
     0.288544627  0.689694589  0.474859418
     0.286308094  0.799423547  0.972454376
     0.711455373  0.189694559  0.025140582
     0.667490866  0.249794617  0.911110282
     0.344946969  0.741721050  0.094397906
     0.332509134  0.749794632  0.588889718
     0.655053031  0.241721050  0.405602094
     0.556796657  0.238226586  0.951166533
     0.444780861  0.731685113  0.041627466
     0.443203343  0.738226571  0.548833467
     0.555219139  0.231685113  0.458372534
     0.457583309  0.278365281  0.030802891
     0.552167650  0.682408266  0.972437782
     0.542416691  0.778365281  0.469197109
     0.447832350  0.182408266  0.527562218
     0.373507206  0.408964266  0.012136694
     0.638167081  0.554969042  0.006655774
     0.626492794  0.908964296  0.487863306
     0.361832919  0.054969072  0.493344226
     0.457100935  0.571805646  0.756512095
     0.537861718  0.424293889  0.269101121
     0.542899065  0.071805646  0.743487905
     0.462138282  0.924293889  0.230898879
     0.351296716  0.620238856  0.830694255
     0.646182976  0.364165347  0.203606048
     0.648703284  0.120238856  0.669305745
     0.353817024  0.864165347  0.296393952
     0.331851007  0.535902688  0.936841750
     0.674298581  0.434256083  0.093299603
     0.668148993  0.035902688  0.563158250
     0.325701419  0.934256083  0.406700397
     0.914193807  0.432632462  0.910073181
     0.090325447  0.578103236  0.078526821
     0.085806193  0.932632492  0.589926819
     0.909674553  0.078103266  0.421473179
     0.921358849  0.463011586  0.821636740
     0.079765043  0.548407362  0.166348543
     0.078641151  0.963011586  0.678363260
     0.920234957  0.048407362  0.333651457
     0.819444223  0.424646705  0.838196147
     0.183158867  0.585843442  0.152095170
     0.180555777  0.924646705  0.661803853
     0.816841133  0.085843442  0.347904830
     0.731433552  0.513783051  0.914561132
     0.273238853  0.495707490  0.078254528
     0.268566448  0.013783051  0.585438868
     0.726761147  0.995707490  0.421745472
     0.777171181  0.609525370  0.949392704
     0.227911966  0.399787099  0.043432803
     0.222828819  0.109525370  0.550607296
     0.772088034  0.899787099  0.456567197
     0.830333386  0.517009640  0.983319439
     0.175983435  0.492168505  0.007725038
     0.169666614  0.017009640  0.516680561
     0.824016565  0.992168505  0.492274962
     0.923634561  0.659522155  0.924565385
     0.079583412  0.351186211  0.064690717
     0.076365439  0.159522155  0.575434615
     0.920416588  0.851186211  0.435309283
     0.983533738  0.597916688  0.873854477
     0.018290505  0.413096968  0.114112662
     0.016466262  0.097916688  0.626145523
     0.981709495  0.913096968  0.385887338
     0.970043779  0.565215838  0.959709119
     0.034483081  0.445673758  0.028949921
     0.029956221  0.065215838  0.540290881
     0.965516919  0.945673758  0.471050079
     0.674880987  0.693890476  0.628336952
     0.314339646  0.320774166  0.367671725
     0.325119013  0.193890476  0.871663048
     0.685660354  0.820774166  0.132328275
     0.894017916  0.685893187  0.809456646
     0.105948780  0.325485846  0.178958605
     0.105982084  0.185893187  0.690543354
     0.894051220  0.825485846  0.321041395
     0.849789762  0.833340055  0.590819370
     0.128477211  0.185967714  0.397804142
     0.150210238  0.333340055  0.909180630
     0.871522789  0.685967714  0.102195858
     0.754464389  0.769997191  0.576748496
     0.220128433  0.253934906  0.417070271
     0.245535611  0.269997191  0.923251504
     0.779871567  0.753934906  0.082929729
     0.862278350  0.725218816  0.595403391
     0.111359440  0.292943799  0.384082125
     0.137721650  0.225218816  0.904596609
     0.888640560  0.792943799  0.115917875
     0.767001409  0.855751140  0.762844747
     0.244518892  0.152370175  0.244525003
     0.232998591  0.355751140  0.737155253
     0.755481108  0.652370175  0.255474997
     0.696404380  0.841794966  0.676941964
     0.300315943  0.175625016  0.333932487
     0.303595620  0.341794966  0.823058036
     0.699684057  0.675625016  0.166067513
     0.788488465  0.909587003  0.686915848
     0.210771575  0.104844496  0.318603307
     0.211511535  0.409587003  0.813084152
     0.789228425  0.604844496  0.181396693
     0.944248960  0.854389138  0.706770690
     0.054979653  0.151304462  0.275451472
     0.055751040  0.354389138  0.793229310
     0.945020347  0.651304462  0.224548528
     0.966951166  0.748955732  0.721678004
     0.027806729  0.254840527  0.254491816
     0.033048834  0.248955732  0.778321996
     0.972193271  0.754840527  0.245508184
     0.926800031  0.808233148  0.786686775
     0.083596070  0.196033419  0.198645622
     0.073199969  0.308233148  0.713313225
     0.916403930  0.696033419  0.301354378
     0.573860418  0.599606959  0.606664970
     0.417871060  0.412700498  0.391023487
     0.426139582  0.099606959  0.893335030
     0.582128940  0.912700498  0.108976513
     0.450394773  0.591345159  0.552603064
     0.537515685  0.430180932  0.455439365
     0.549605227  0.091345159  0.947396936
     0.462484315  0.930180932  0.044560635
     0.317048419  0.544039452  0.468197868
     0.674146031  0.481887141  0.533757241
     0.682951581  0.044039452  0.031802132
     0.325853969  0.981887141  0.966242759
     0.251110637  0.408131516  0.481919548
     0.740549175  0.613997710  0.508533375
     0.748889348  0.908131486  0.018080452
     0.259450810  0.113997680  0.991466625
     0.470295098  0.249530778  0.739378505
     0.520055499  0.746840058  0.238640185
     0.529704902  0.749530793  0.760621495
     0.479944501  0.246840058  0.261359815
     0.334162946  0.192614384  0.658294244
     0.653124160  0.811788984  0.315636595
     0.665837054  0.692614414  0.841705756
     0.346875840  0.311789014  0.184363405
     0.256267725  0.276835876  0.553447711
     0.733359076  0.739663026  0.426718033
     0.743732290  0.776835906  0.946552289
     0.266640939  0.239663056  0.073281967

  ion indices of the primitive-cell ions
   primitive index   ion index
                 1           1
                 2           2
                 3           3
                 4           4
                 5           5
                 6           6
                 7           7
                 8           8
                 9           9
                10          10
                11          11
                12          12
                13          13
                14          14
                15          15
                16          16
                17          17
                18          18
                19          19
                20          20
                21          21
                22          22
                23          23
                24          24
                25          25
                26          26
                27          27
                28          28
                29          29
                30          30
                31          31
                32          32
                33          33
                34          34
                35          35
                36          36
                37          37
                38          38
                39          39
                40          40
                41          41
                42          42
                43          43
                44          44
                45          45
                46          46
                47          47
                48          48
                49          49
                50          50
                51          51
                52          52
                53          53
                54          54
                55          55
                56          56
                57          57
                58          58
                59          59
                60          60
                61          61
                62          62
                63          63
                64          64
                65          65
                66          66
                67          67
                68          68
                69          69
                70          70
                71          71
                72          72
                73          73
                74          74
                75          75
                76          76
                77          77
                78          78
                79          79
                80          80
                81          81
                82          82
                83          83
                84          84
                85          85
                86          86
                87          87
                88          88
                89          89
                90          90
                91          91
                92          92
                93          93
                94          94
                95          95
                96          96
                97          97
                98          98
                99          99
               100         100
               101         101
               102         102
               103         103
               104         104
               105         105
               106         106
               107         107
               108         108
               109         109
               110         110
               111         111
               112         112
               113         113
               114         114
               115         115
               116         116
               117         117
               118         118
               119         119
               120         120
               121         121
               122         122
               123         123
               124         124
               125         125
               126         126
               127         127
               128         128
               129         129
               130         130
               131         131
               132         132
               133         133
               134         134
               135         135
               136         136
               137         137
               138         138
               139         139
               140         140
               141         141
               142         142
               143         143
               144         144
               145         145
               146         146
               147         147
               148         148
               149         149
               150         150
               151         151
               152         152
               153         153
               154         154
               155         155
               156         156
               157         157
               158         158
               159         159
               160         160
               161         161
               162         162
               163         163
               164         164
               165         165
               166         166
               167         167
               168         168
               169         169
               170         170
               171         171
               172         172
               173         173
               174         174
               175         175
               176         176
               177         177
               178         178
               179         179
               180         180
               181         181
               182         182
               183         183
               184         184
               185         185
               186         186
               187         187
               188         188
               189         189
               190         190
               191         191
               192         192
               193         193
               194         194
               195         195
               196         196
               197         197
               198         198
               199         199
               200         200
               201         201
               202         202
               203         203
               204         204
               205         205
               206         206
               207         207
               208         208
               209         209
               210         210
               211         211
               212         212
               213         213
               214         214
               215         215
               216         216
               217         217
               218         218
               219         219
               220         220
               221         221
               222         222
               223         223
               224         224
               225         225
               226         226
               227         227
               228         228
               229         229
               230         230
               231         231
               232         232
               233         233
               234         234
               235         235
               236         236
               237         237
               238         238
               239         239
               240         240
               241         241
               242         242
               243         243
               244         244
               245         245
               246         246
               247         247
               248         248
               249         249
               250         250
               251         251
               252         252
               253         253
               254         254
               255         255
               256         256
               257         257
               258         258
               259         259
               260         260
               261         261
               262         262
               263         263
               264         264
               265         265
               266         266
               267         267
               268         268
               269         269
               270         270
               271         271
               272         272
               273         273
               274         274
               275         275
               276         276
               277         277
               278         278
               279         279
               280         280
               281         281
               282         282
               283         283
               284         284
               285         285
               286         286
               287         287
               288         288
               289         289
               290         290
               291         291
               292         292
               293         293
               294         294
               295         295
               296         296
               297         297
               298         298
               299         299
               300         300
               301         301
               302         302
               303         303
               304         304
               305         305
               306         306
               307         307
               308         308
               309         309
               310         310
               311         311
               312         312
               313         313
               314         314
               315         315
               316         316
               317         317
               318         318
               319         319
               320         320
               321         321
               322         322
               323         323
               324         324
               325         325
               326         326
               327         327
               328         328
               329         329
               330         330
               331         331
               332         332
               333         333
               334         334
               335         335
               336         336
               337         337
               338         338
               339         339
               340         340
               341         341
               342         342
               343         343
               344         344
               345         345
               346         346
               347         347
               348         348
               349         349
               350         350
               351         351
               352         352
               353         353
               354         354
               355         355
               356         356
               357         357
               358         358
               359         359
               360         360
               361         361
               362         362
               363         363
               364         364
               365         365
               366         366
               367         367
               368         368
               369         369
               370         370
               371         371
               372         372
               373         373
               374         374
               375         375
               376         376
               377         377
               378         378
               379         379
               380         380
               381         381
               382         382
               383         383
               384         384
               385         385
               386         386
               387         387
               388         388
               389         389
               390         390
               391         391
               392         392
               393         393
               394         394
               395         395
               396         396
               397         397
               398         398
               399         399
               400         400
               401         401
               402         402
               403         403
               404         404
               405         405
               406         406
               407         407
               408         408
               409         409
               410         410
               411         411
               412         412
               413         413
               414         414
               415         415
               416         416
               417         417
               418         418
               419         419
               420         420
               421         421
               422         422
               423         423
               424         424
               425         425
               426         426
               427         427
               428         428
               429         429
               430         430
               431         431
               432         432
               433         433
               434         434
               435         435
               436         436

----------------------------------------------------------------------------------------

 
 -----------------------------------------------------------------------------
|                                                                             |
|           W    W    AA    RRRRR   N    N  II  N    N   GGGG   !!!           |
|           W    W   A  A   R    R  NN   N  II  NN   N  G    G  !!!           |
|           W    W  A    A  R    R  N N  N  II  N N  N  G       !!!           |
|           W WW W  AAAAAA  RRRRR   N  N N  II  N  N N  G  GGG   !            |
|           WW  WW  A    A  R   R   N   NN  II  N   NN  G    G                |
|           W    W  A    A  R    R  N    N  II  N    N   GGGG   !!!           |
|                                                                             |
|     The requested file  could not be found or opened for reading            |
|     k-point information. Automatic k-point generation is used as a          |
|     fallback, which may lead to unwanted results.                           |
|                                                                             |
 -----------------------------------------------------------------------------

 

Automatic generation of k-mesh.
 Grid dimensions derived from KSPACING:
 generate k-points for:    3    2    2

 Generating k-lattice:

  Cartesian coordinates                     Fractional coordinates (reciprocal lattice)
     0.021679796  0.000000000  0.004490305     0.333333333  0.000000000  0.000000000
     0.000000000  0.030546225  0.000000000     0.000000000  0.500000000  0.000000000
     0.000250914  0.000000000  0.026893021     0.000000000  0.000000000  0.500000000

  Length of vectors
     0.022139928  0.030546225  0.026894191

  Shift w.r.t. Gamma in fractional coordinates (k-lattice)
     0.000000000  0.000000000  0.000000000

 
 Subroutine IBZKPT returns following result:
 ===========================================
 
 Found      8 irreducible k-points:
 
 Following reciprocal coordinates:
            Coordinates               Weight
  0.000000  0.000000  0.000000      1.000000
  0.333333  0.000000  0.000000      2.000000
  0.000000  0.500000  0.000000      1.000000
  0.333333  0.500000  0.000000      2.000000
  0.000000  0.000000  0.500000      1.000000
  0.333333  0.000000  0.500000      2.000000
  0.000000  0.500000  0.500000      1.000000
  0.333333  0.500000  0.500000      2.000000
 
 Following cartesian coordinates:
            Coordinates               Weight
  0.000000  0.000000  0.000000      1.000000
  0.021680  0.000000  0.004490      2.000000
  0.000000  0.030546  0.000000      1.000000
  0.021680  0.030546  0.004490      2.000000
  0.000251  0.000000  0.026893      1.000000
  0.021931  0.000000  0.031383      2.000000
  0.000251  0.030546  0.026893      1.000000
  0.021931  0.030546  0.031383      2.000000
 


--------------------------------------------------------------------------------------------------------




 Dimension of arrays:
   k-points           NKPTS =      8   k-points in BZ     NKDIM =      8   number of bands    NBANDS=    768
   number of dos      NEDOS =    301   number of ions     NIONS =    436
   non local maximal  LDIM  =      7   non local SUM 2l+1 LMDIM =     19
   total plane-waves  NPLWV = ******
   max r-space proj   IRMAX =      1   max aug-charges    IRDMAX=  98791
   dimension x,y,z NGX =   126 NGY =  140 NGZ =  160
   dimension x,y,z NGXF=   252 NGYF=  280 NGZF=  320
   support grid    NGXF=   504 NGYF=  560 NGZF=  640
   ions per type =               4   8  16 192 216
   NGX,Y,Z   is equivalent  to a cutoff of  13.60, 14.22, 13.98 a.u.
   NGXF,Y,Z  is equivalent  to a cutoff of  27.19, 28.44, 27.96 a.u.

 SYSTEM =  unknown system                          
 POSCAR =  TransitionMetal                         

 Startparameter for this run:
   NWRITE =      2    write-flag & timer
   PREC   = accura    normal or accurate (medium, high low for compatibility)
   ISTART =      0    job   : 0-new  1-cont  2-samecut
   ICHARG =      2    charge: 1-file 2-atom 10-const
   ISPIN  =      2    spin polarized calculation?
   LNONCOLLINEAR =      F non collinear calculations
   LSORBIT =      F    spin-orbit coupling
   INIWAV =      1    electr: 0-lowe 1-rand  2-diag
   LASPH  =      T    aspherical Exc in radial PAW
 Electronic Relaxation 1
   ENCUT  =  600.0 eV  44.10 Ry    6.64 a.u.  30.77 32.69 37.99*2*pi/ulx,y,z
   ENINI  =  600.0     initial cutoff
   ENAUG  =  739.8 eV  augmentation charge cutoff
   NELM   =   2000;   NELMIN=  4; NELMDL= -7     # of ELM steps 
   EDIFF  = 0.1E-08   stopping-criterion for ELM
   LREAL  =      F    real-space projection
   NLSPLINE    = F    spline interpolate recip. space projectors
   LCOMPAT=      F    compatible to vasp.4.4
   GGA_COMPAT  = T    GGA compatible to vasp.4.4-vasp.4.6
   LMAXPAW     = -100 max onsite density
   LMAXMIX     =    4 max onsite mixed and CHGCAR
   VOSKOWN=      0    Vosko Wilk Nusair interpolation
   ROPT   =    0.00000   0.00000   0.00000   0.00000
   ROPT   =    0.00000
 Ionic relaxation
   EDIFFG = -.1E-02   stopping-criterion for IOM
   NSW    =    900    number of steps for IOM
   NBLOCK =      1;   KBLOCK =    900    inner block; outer block 
   IBRION =      2    ionic relax: 0-MD 1-quasi-New 2-CG
   NFREE  =      1    steps in history (QN), initial steepest desc. (CG)
   ISIF   =      3    stress and relaxation
   IWAVPR =     11    prediction:  0-non 1-charg 2-wave 3-comb
   ISYM   =      2    0-nonsym 1-usesym 2-fastsym
   LCORR  =      T    Harris-Foulkes like correction to forces

   POTIM  = 0.8000    time-step for ionic-motion
   TEIN   =    0.0    initial temperature
   TEBEG  =    0.0;   TEEND  =   0.0 temperature during run
   SMASS  =  -3.00    Nose mass-parameter (am)
   estimated Nose-frequenzy (Omega)   =  0.10E-29 period in steps = 0.79E+46 mass=  -0.542E-26a.u.
   SCALEE = 1.0000    scale energy and forces
   NPACO  =    256;   APACO  = 10.0  distance and # of slots for P.C.
   PSTRESS=    0.0 pullay stress

  Mass of Ions in am
   POMASS =  55.85 16.00 14.00 12.01  1.00
  Ionic Valenz
   ZVAL   =  16.00  6.00  5.00  4.00  1.00
  Atomic Wigner-Seitz radii
   RWIGS  =  -1.00 -1.00 -1.00 -1.00 -1.00
  virtual crystal weights 
   VCA    =   1.00  1.00  1.00  1.00  1.00
   NELECT =    1176.0000    total number of electrons
   NUPDOWN=       8.0000    fix difference up-down

 DOS related values:
   EMIN   =  10.00;   EMAX   =-10.00  energy-range for DOS
   EFERMI =   0.00
   ISMEAR =     0;   SIGMA  =   0.01  broadening in eV -4-tet -1-fermi 0-gaus

 Electronic relaxation 2 (details)
   IALGO  =     58    algorithm
   LDIAG  =      T    sub-space diagonalisation (order eigenvalues)
   LSUBROT=      F    optimize rotation matrix (better conditioning)
   TURBO    =      0    0=normal 1=particle mesh
   IRESTART =      0    0=no restart 2=restart with 2 vectors
   NREBOOT  =      0    no. of reboots
   NMIN     =      0    reboot dimension
   EREF     =   0.00    reference energy to select bands
   IMIX   =      4    mixing-type and parameters
     AMIX     =   0.40;   BMIX     =  1.00
     AMIX_MAG =   1.60;   BMIX_MAG =  1.00
     AMIN     =   0.10
     WC   =   100.;   INIMIX=   1;  MIXPRE=   1;  MAXMIX= -45

 Intra band minimization:
   WEIMIN = 0.0010     energy-eigenvalue tresh-hold
   EBREAK =  0.33E-12  absolut break condition
   DEPER  =   0.30     relativ break condition  

   TIME   =   0.40     timestep for ELM

  volume/ion in A,a.u.               =      10.75        72.56
  Fermi-wavevector in a.u.,A,eV,Ry     =   1.032464  1.951075 14.503577  1.065983
  Thomas-Fermi vector in A             =   2.166663
 
 Write flags
   LWAVE        =      F    write WAVECAR
   LDOWNSAMPLE  =      F    k-point downsampling of WAVECAR
   LCHARG       =      F    write CHGCAR
   LVTOT        =      F    write LOCPOT, total local potential
   LVHAR        =      F    write LOCPOT, Hartree potential only
   LELF         =      F    write electronic localiz. function (ELF)
   LORBIT       =     11    0 simple, 1 ext, 2 COOP (PROOUT), +10 PAW based schemes


 Dipole corrections
   LMONO  =      F    monopole corrections only (constant potential shift)
   LDIPOL =      F    correct potential (dipole corrections)
   IDIPOL =      0    1-x, 2-y, 3-z, 4-all directions 
   EPSILON=  1.0000000 bulk dielectric constant

 LDA+U is selected, type is set to LDAUTYPE =  2
   angular momentum for each species LDAUL =     2   -1   -1   -1   -1
   U (eV)           for each species LDAUU =   2.0  0.0  0.0  0.0  0.0
   J (eV)           for each species LDAUJ =   0.0  0.0  0.0  0.0  0.0
 Exchange correlation treatment:
   GGA     =    PE    GGA type
   LEXCH   =     8    internal setting for exchange type
   LIBXC   =     F    Libxc                    
   VOSKOWN =     0    Vosko Wilk Nusair interpolation
   LHFCALC =     F    Hartree Fock is set to
   LHFONE  =     F    Hartree Fock one center treatment
   AEXX    =    0.0000 exact exchange contribution

 Linear response parameters
   LEPSILON=     F    determine dielectric tensor
   LRPA    =     F    only Hartree local field effects (RPA)
   LNABLA  =     F    use nabla operator in PAW spheres
   LVEL    =     F    velocity operator in full k-point grid
   CSHIFT  =0.1000    complex shift for real part using Kramers Kronig
   OMEGAMAX=  -1.0    maximum frequency
   DEG_THRESHOLD= 0.2000000E-02 threshold for treating states as degnerate
   RTIME   =   -0.100 relaxation time in fs
  (WPLASMAI=    0.000 imaginary part of plasma frequency in eV, 0.658/RTIME)
   DFIELD  = 0.0000000 0.0000000 0.0000000 field for delta impulse in time
 
  Optional k-point grid parameters
   LKPOINTS_OPT  =     F    use optional k-point grid
   KPOINTS_OPT_MODE=     1    mode for optional k-point grid
 
 Orbital magnetization related:
   ORBITALMAG=     F  switch on orbital magnetization
   LCHIMAG   =     F  perturbation theory with respect to B field
   DQ        =  0.001000  dq finite difference perturbation B field
   LLRAUG    =     F  two centre corrections for induced B field



--------------------------------------------------------------------------------------------------------


 conjugate gradient relaxation of ions
 charge density and potential will be updated during run
 spin polarized calculation
 Conjugate gradient for all bands (Freysoldt, et al. PRB 79, 241103 (2009))
 preconditioned conjugated gradient                                        
 perform sub-space diagonalisation
    before iterative eigenvector-optimisation
 modified Broyden-mixing scheme, WC =      100.0
 initial mixing is a Kerker type mixing with AMIX =  0.4000 and BMIX =      1.0000
 Hartree-type preconditioning will be used
 using additional bands          180
 reciprocal scheme for non local part
 use partial core corrections
 no Harris-corrections to forces 
 use gradient corrections 
 use of overlap-Matrix (Vanderbilt PP)
 Gauss-broadening in eV      SIGMA  =   0.01


--------------------------------------------------------------------------------------------------------


  energy-cutoff  :      600.00
  volume of cell :     4688.20
      direct lattice vectors                 reciprocal lattice vectors
    15.405067830  0.000000000 -0.143730380     0.065039388  0.000000000  0.013470916
     0.000000000 16.368634501  0.000000000     0.000000000  0.061092451  0.000000000
    -3.858257047  0.000000000 18.628182255     0.000501828  0.000000000  0.053786041

  length of vectors
    15.405738323 16.368634501 19.023546503     0.066419783  0.061092451  0.053788382


 
 k-points in units of 2pi/SCALE and weight: read from INCAR                         
   0.00000000  0.00000000  0.00000000       0.083
   0.02167980  0.00000000  0.00449031       0.167
   0.00000000  0.03054623  0.00000000       0.083
   0.02167980  0.03054623  0.00449031       0.167
   0.00025091  0.00000000  0.02689302       0.083
   0.02193071  0.00000000  0.03138333       0.167
   0.00025091  0.03054623  0.02689302       0.083
   0.02193071  0.03054623  0.03138333       0.167
 
 k-points in reciprocal lattice and weights: read from INCAR                         
   0.00000000  0.00000000  0.00000000       0.083
   0.33333333  0.00000000  0.00000000       0.167
   0.00000000  0.50000000  0.00000000       0.083
   0.33333333  0.50000000  0.00000000       0.167
   0.00000000  0.00000000  0.50000000       0.083
   0.33333333  0.00000000  0.50000000       0.167
   0.00000000  0.50000000  0.50000000       0.083
   0.33333333  0.50000000  0.50000000       0.167
 
 position of ions in fractional coordinates (direct lattice) 
   0.58533153  0.41479768  0.75228567
   0.42213971  0.58240870  0.24753727
   0.41466847  0.91479768  0.74771433
   0.57786029  0.08240870  0.25246273
   0.66551840  0.33673493  0.71435909
   0.33606654  0.64633291  0.28822352
   0.33448160  0.83673496  0.78564091
   0.66393346  0.14633294  0.21177648
   0.68294675  0.49235855  0.79344789
   0.31926875  0.51750451  0.19890621
   0.31705325  0.99235858  0.70655211
   0.68073125  0.01750454  0.30109379
   0.59195824  0.33089603  0.83888877
   0.40819287  0.65135115  0.16320788
   0.40804176  0.83089606  0.66111123
   0.59180713  0.15135118  0.33679212
   0.49470712  0.46817884  0.81648516
   0.50377676  0.52179722  0.20006145
   0.50529285  0.96817887  0.68351484
   0.49622321  0.02179725  0.29993855
   0.46933089  0.35716130  0.68339013
   0.52115818  0.64542716  0.30312047
   0.53066914  0.85716133  0.81660987
   0.47884185  0.14542719  0.19687953
   0.54561800  0.50119334  0.66770153
   0.44534418  0.51172840  0.33096177
   0.45438200  0.00119334  0.83229847
   0.55465582  0.01172840  0.16903823
   0.96054910  0.11863713  0.91766145
   0.06077622  0.88683848  0.08447613
   0.03945090  0.61863713  0.58233855
   0.93922378  0.38683848  0.41552387
   0.84731943  0.01196079  0.86718753
   0.17613300  0.98496641  0.14838414
   0.15268057  0.51196082  0.63281247
   0.82386700  0.48496644  0.35161586
   0.96233081  0.05285531  0.79949973
   0.05152858  0.94199707  0.20509678
   0.03766919  0.55285532  0.70050027
   0.94847142  0.44199707  0.29490322
   0.90152364  0.08469700  0.84788231
   0.11585876  0.91257442  0.15873903
   0.09847636  0.58469697  0.65211769
   0.88414124  0.41257439  0.34126097
   0.83803699  0.15210984  0.81141898
   0.17376242  0.84055934  0.19313331
   0.16196301  0.65210986  0.68858102
   0.82623758  0.34055934  0.30686669
   0.84000464  0.18391877  0.74239009
   0.16947155  0.80701063  0.26100567
   0.15999536  0.68391879  0.75760991
   0.83052845  0.30701063  0.23899433
   0.78474409  0.24575152  0.70819846
   0.22142199  0.74250345  0.29414402
   0.21525591  0.74575150  0.79180154
   0.77857801  0.24250345  0.20585598
   0.71911771  0.27945859  0.74408003
   0.28583884  0.70598526  0.25814291
   0.28088229  0.77945859  0.75591997
   0.71416116  0.20598526  0.24185709
   0.71595894  0.24775092  0.81461849
   0.29035955  0.73943466  0.18840769
   0.28404106  0.74775093  0.68538151
   0.70964045  0.23943466  0.31159231
   0.77619048  0.18566670  0.84601827
   0.23438208  0.80507827  0.15845954
   0.22380952  0.68566673  0.65398173
   0.76561792  0.30507830  0.34154046
   0.86551365  0.23465868  0.60424589
   0.14062620  0.75790603  0.39798085
   0.13448635  0.73465871  0.89575411
   0.85937380  0.25790606  0.10201915
   0.79423846  0.27993656  0.63478260
   0.20945678  0.70923679  0.36712230
   0.20576154  0.77993656  0.86521740
   0.79054322  0.20923679  0.13287770
   0.82168075  0.37087598  0.64332334
   0.17708727  0.61969013  0.35798213
   0.17831925  0.87087601  0.85667666
   0.82291273  0.11969016  0.14201787
   0.70594066  0.27202319  0.57877994
   0.29796356  0.71410743  0.42303298
   0.29405934  0.77202322  0.92122006
   0.70203644  0.21410746  0.07696702
   0.65624049  0.27646780  0.85687408
   0.34971925  0.71055681  0.14611908
   0.34375951  0.77646777  0.64312592
   0.65028075  0.21055678  0.35388092
   0.53545993  0.34707796  0.88606792
   0.46652449  0.63190062  0.11792912
   0.46454007  0.84707796  0.61393208
   0.53347551  0.13190062  0.38207088
   0.52218430  0.29649240  0.94176471
   0.48086482  0.67537368  0.05849905
   0.47781570  0.79649240  0.55823529
   0.51913518  0.17537368  0.44150095
   0.46469187  0.31912506  0.98704841
   0.54266976  0.64723263  0.01890559
   0.53530810  0.81912503  0.51295159
   0.45733021  0.14723261  0.48109441
   0.41768508  0.39149602  0.97687854
   0.59074527  0.57636992  0.03773593
   0.58231492  0.89149602  0.52312146
   0.40925473  0.07636992  0.46226407
   0.42602245  0.44357312  0.91914958
   0.57910729  0.53100980  0.09855491
   0.57397755  0.94357315  0.58085042
   0.42089271  0.03100983  0.40144509
   0.48486318  0.42120366  0.87356358
   0.51734087  0.56000616  0.13879039
   0.51513682  0.92120369  0.62643642
   0.48265913  0.06000619  0.36120961
   0.44792366  0.53672557  0.80319103
   0.54952015  0.45349826  0.22053218
   0.55207634  0.03672557  0.69680897
   0.45047985  0.95349826  0.27946782
   0.38835460  0.56383580  0.84520240
   0.61090914  0.41982986  0.18323593
   0.61164543  0.06383580  0.65479760
   0.38909089  0.91982986  0.31676407
   0.37755893  0.51730953  0.90312067
   0.62634974  0.45843536  0.12269152
   0.62244107  0.01730953  0.59687933
   0.37365026  0.95843536  0.37730848
   0.87771264  0.46202203  0.86049951
   0.12504027  0.54878787  0.12873935
   0.12228736  0.96202200  0.63950049
   0.87495973  0.04878784  0.37126065
   0.79335668  0.54728923  0.93436434
   0.21150343  0.46232403  0.05744365
   0.20664332  0.04728923  0.56563566
   0.78849657  0.96232403  0.44255635
   0.85101626  0.54987532  0.87701418
   0.15187044  0.46064309  0.11332399
   0.14898374  0.04987532  0.62298582
   0.84812956  0.96064309  0.38667601
   0.93667175  0.59629977  0.91009394
   0.06643695  0.41447340  0.07892064
   0.06332825  0.09629977  0.58990606
   0.93356305  0.91447340  0.42107936
   0.79983378  0.59046582  0.80749922
   0.20098565  0.42067187  0.18386383
   0.20016622  0.09046582  0.69250078
   0.79901435  0.92067187  0.31613617
   0.71693407  0.55603483  0.76904585
   0.28282804  0.45574876  0.22442701
   0.28306593  0.05603483  0.73095415
   0.71717196  0.95574876  0.27557299
   0.67330592  0.59481560  0.70237114
   0.32053479  0.41816191  0.29318902
   0.32669408  0.09481560  0.79762886
   0.67946521  0.91816191  0.20681098
   0.71111041  0.66598149  0.67815532
   0.28127675  0.34727860  0.31619503
   0.28888959  0.16598149  0.82184468
   0.71872325  0.84727860  0.18380497
   0.78932280  0.70019698  0.71550222
   0.20561767  0.31160390  0.27611067
   0.21067720  0.20019698  0.78449778
   0.79438233  0.81160390  0.22388933
   0.83190294  0.66012919  0.77978691
   0.16691965  0.35124495  0.21062799
   0.16809706  0.16012919  0.72021309
   0.83308035  0.85124495  0.28937201
   0.82252157  0.77662283  0.60842412
   0.15650114  0.24209511  0.37976201
   0.17747843  0.27662283  0.89157588
   0.84349886  0.74209511  0.12023799
   0.82505149  0.78010224  0.68987211
   0.16868142  0.23224466  0.30174176
   0.17494851  0.28010224  0.81012789
   0.83131858  0.73224466  0.19825824
   0.76565483  0.85104179  0.70500458
   0.23512506  0.16222241  0.29954901
   0.23434517  0.35104179  0.79499542
   0.76487494  0.66222241  0.20045099
   0.92113383  0.79826346  0.72874897
   0.07873899  0.20781619  0.25458427
   0.07886617  0.29826346  0.77125103
   0.92126101  0.70781619  0.24541573
   0.59411540  0.56495745  0.65694160
   0.39770052  0.44766852  0.34107137
   0.40588460  0.06495745  0.84305840
   0.60229948  0.94766852  0.15892863
   0.46770765  0.48185972  0.61738770
   0.52304985  0.53211817  0.38138590
   0.53229232  0.98185975  0.88261230
   0.47695012  0.03211820  0.11861410
   0.42457742  0.53093255  0.56074898
   0.56467990  0.48807243  0.44182482
   0.57542258  0.03093255  0.93925102
   0.43532010  0.98807243  0.05817518
   0.34750311  0.50409622  0.51236163
   0.64305861  0.51777763  0.48686577
   0.65249689  0.00409622  0.98763837
   0.35694139  0.01777763  0.01313423
   0.31064079  0.42851199  0.51970801
   0.68041311  0.59125368  0.47296246
   0.68935924  0.92851199  0.98029199
   0.31958692  0.09125368  0.02703754
   0.35041970  0.37698768  0.57741835
   0.64053537  0.63765052  0.41164343
   0.64958033  0.87698766  0.92258165
   0.35946466  0.13765050  0.08835657
   0.42871434  0.40390722  0.62645869
   0.56258925  0.60652974  0.36546568
   0.57128563  0.90390722  0.87354131
   0.43741072  0.10652974  0.13453432
   0.43571409  0.28425503  0.69281326
   0.55414161  0.71716187  0.28803652
   0.56428594  0.78425500  0.80718674
   0.44585842  0.21716184  0.21196348
   0.35917849  0.25234841  0.64692984
   0.62959337  0.75343513  0.33180162
   0.64082149  0.75234841  0.85307016
   0.37040661  0.25343513  0.16819838
   0.31640948  0.29888926  0.58959736
   0.67364290  0.71369342  0.39289251
   0.68359052  0.79888926  0.91040264
   0.32635710  0.21369342  0.10710749
   0.99964191  0.17122195  0.90613320
   0.01803622  0.83430035  0.08931795
   0.00035809  0.67122198  0.59386680
   0.98196378  0.33430038  0.41068205
   0.00684300  0.07135504  0.94439471
   0.01826176  0.93759917  0.05957604
   0.99315700  0.57135504  0.55560529
   0.98173824  0.43759917  0.44042396
   0.92051845  0.13893076  0.95583377
   0.10363842  0.86943315  0.04753707
   0.07948155  0.63893076  0.54416623
   0.89636158  0.36943315  0.45246293
   0.80486173  0.02990621  0.90420155
   0.22176804  0.96856377  0.11343804
   0.19513827  0.52990619  0.59579845
   0.77823196  0.46856374  0.38656196
   0.89205385  0.96328646  0.89338621
   0.13577351  0.03704551  0.12350963
   0.10794615  0.46328646  0.60661379
   0.86422649  0.53704553  0.37649037
   0.80428442  0.98627726  0.81875079
   0.21629280  0.00527559  0.20021535
   0.19571558  0.48627726  0.68124921
   0.78370720  0.50527559  0.29978465
   0.92395075  0.02710124  0.74899272
   0.08706705  0.96350603  0.25819943
   0.07604925  0.52710126  0.75100728
   0.91293295  0.46350606  0.24180057
   0.00510001  0.00400164  0.82749893
   0.01195210  0.99345071  0.17833930
   0.99489999  0.50400164  0.67250107
   0.98804790  0.49345071  0.32166070
   0.00628004  0.10063112  0.78610109
   0.00472443  0.89402936  0.21328459
   0.99371996  0.60063113  0.71389891
   0.99527557  0.39402936  0.28671541
   0.88859131  0.15850907  0.71448584
   0.12198330  0.83365337  0.28933425
   0.11140869  0.65850905  0.78551416
   0.87801670  0.33365337  0.21066575
   0.77152975  0.16417537  0.89951241
   0.24136005  0.82755424  0.10580888
   0.22847025  0.66417534  0.60048759
   0.75863995  0.32755421  0.39419112
   0.85038914  0.16925110  0.59587157
   0.15925500  0.82256223  0.40690547
   0.14961086  0.66925113  0.90412843
   0.84074500  0.32256226  0.09309453
   0.93182529  0.24053273  0.63919884
   0.07396564  0.75498455  0.36320981
   0.06817471  0.74053272  0.86080116
   0.92603436  0.25498455  0.13679019
   0.86892346  0.26091723  0.55168918
   0.13603108  0.73191625  0.45037780
   0.13107654  0.76091720  0.94831082
   0.86396892  0.23191622  0.04962220
   0.82930731  0.39582381  0.59118008
   0.16730947  0.59538515  0.40975287
   0.17069269  0.89582381  0.90881992
   0.83269053  0.09538515  0.09024713
   0.88571979  0.37745456  0.68149156
   0.11303934  0.61604261  0.31940907
   0.11428021  0.87745453  0.81850844
   0.88696066  0.11604258  0.18059093
   0.77212637  0.40726815  0.66308178
   0.22478587  0.58085176  0.33830355
   0.22787363  0.90726815  0.83691822
   0.77521413  0.08085176  0.16169645
   0.65158113  0.30296468  0.59697100
   0.35034312  0.67929696  0.40553709
   0.34841887  0.80296471  0.90302900
   0.64965688  0.17929699  0.09446291
[...]
tot        344.092 443.751  21.958 809.801



 magnetization (x)

# of ion       s       p       d       tot
------------------------------------------
    1        0.011   0.012   3.558   3.581
    2        0.000   0.000   0.000   0.000
    3        0.011   0.012   3.558   3.581
    4        0.000   0.000   0.000   0.000
    5        0.008   0.066   0.000   0.073
    6        0.000  -0.000   0.000  -0.000
    7        0.008   0.066   0.000   0.073
    8        0.000  -0.000   0.000  -0.000
    9        0.008   0.070   0.000   0.078
   10       -0.000   0.000   0.000   0.000
   11        0.008   0.070   0.000   0.078
   12       -0.000   0.000   0.000   0.000
   13        0.008   0.024   0.000   0.032
   14        0.000   0.000   0.000   0.000
   15        0.008   0.024   0.000   0.032
   16        0.000   0.000   0.000   0.000
   17        0.009   0.028   0.000   0.037
   18       -0.000  -0.000   0.000  -0.000
   19        0.009   0.028   0.000   0.037
   20       -0.000  -0.000   0.000  -0.000
   21        0.009   0.028   0.000   0.037
   22        0.000   0.000   0.000   0.000
   23        0.009   0.028   0.000   0.037
   24        0.000   0.000   0.000   0.000
   25        0.009   0.024   0.000   0.032
   26       -0.000  -0.000   0.000  -0.000
   27        0.009   0.024   0.000   0.032
   28       -0.000  -0.000   0.000  -0.000
   29        0.000   0.000   0.000   0.000
   30        0.000   0.000   0.000   0.000
   31        0.000   0.000   0.000   0.000
   32        0.000   0.000   0.000   0.000
   33        0.000   0.000   0.000   0.000
   34        0.000   0.000   0.000   0.000
   35        0.000   0.000   0.000   0.000
   36        0.000   0.000   0.000   0.000
   37       -0.000  -0.000   0.000  -0.000
   38        0.000   0.000   0.000   0.000
   39       -0.000  -0.000   0.000  -0.000
   40        0.000   0.000   0.000   0.000
   41       -0.000  -0.000   0.000  -0.000
   42        0.000   0.000   0.000   0.000
   43       -0.000  -0.000   0.000  -0.000
   44        0.000   0.000   0.000   0.000
   45        0.000   0.005   0.000   0.005
   46        0.000  -0.000   0.000  -0.000
   47        0.000   0.005   0.000   0.005
   48        0.000  -0.000   0.000  -0.000
   49       -0.000  -0.007   0.000  -0.007
   50       -0.000  -0.000   0.000  -0.000
   51       -0.000  -0.007   0.000  -0.007
   52       -0.000  -0.000   0.000  -0.000
   53        0.001   0.008   0.000   0.009
   54        0.000   0.000   0.000   0.000
   55        0.001   0.008   0.000   0.009
   56        0.000   0.000   0.000   0.000
   57        0.000  -0.007   0.000  -0.006
   58       -0.000  -0.000   0.000  -0.000
   59        0.000  -0.007   0.000  -0.006
   60       -0.000  -0.000   0.000  -0.000
   61        0.001   0.008   0.000   0.008
   62        0.000   0.000   0.000   0.000
   63        0.001   0.008   0.000   0.008
   64        0.000   0.000   0.000   0.000
   65       -0.000  -0.006   0.000  -0.007
   66       -0.000  -0.000   0.000  -0.000
   67       -0.000  -0.006   0.000  -0.007
   68       -0.000  -0.000   0.000  -0.000
   69        0.000  -0.000   0.000  -0.000
   70        0.000   0.000   0.000   0.000
   71        0.000  -0.000   0.000  -0.000
   72        0.000   0.000   0.000   0.000
   73       -0.000  -0.000   0.000  -0.000
   74        0.000   0.000   0.000   0.000
   75       -0.000  -0.000   0.000  -0.000
   76        0.000   0.000   0.000   0.000
   77        0.000   0.000   0.000   0.000
   78        0.000   0.000   0.000   0.000
   79        0.000   0.000   0.000   0.000
   80        0.000   0.000   0.000   0.000
   81        0.000   0.000   0.000   0.001
   82        0.000   0.000   0.000   0.000
   83        0.000   0.000   0.000   0.001
   84        0.000   0.000   0.000   0.000
   85       -0.001  -0.018   0.000  -0.018
   86       -0.000  -0.000   0.000  -0.000
   87       -0.001  -0.018   0.000  -0.018
   88       -0.000  -0.000   0.000  -0.000
   89       -0.000   0.002   0.000   0.001
   90       -0.000  -0.000   0.000  -0.000
   91       -0.000   0.002   0.000   0.001
   92       -0.000  -0.000   0.000  -0.000
   93        0.000   0.003   0.000   0.003
   94        0.000   0.000   0.000   0.000
   95        0.000   0.003   0.000   0.003
   96        0.000   0.000   0.000   0.000
   97       -0.000  -0.000   0.000  -0.000
   98        0.000   0.000   0.000   0.000
   99       -0.000  -0.000   0.000  -0.000
  100        0.000   0.000   0.000   0.000
  101        0.000   0.002   0.000   0.002
  102       -0.000  -0.000   0.000  -0.000
  103        0.000   0.002   0.000   0.002
  104       -0.000  -0.000   0.000  -0.000
  105        0.000   0.001   0.000   0.001
  106        0.000   0.000   0.000   0.000
  107        0.000   0.001   0.000   0.001
  108        0.000   0.000   0.000   0.000
  109       -0.000  -0.004   0.000  -0.004
  110        0.000   0.000   0.000   0.000
  111       -0.000  -0.004   0.000  -0.004
  112        0.000   0.000   0.000   0.000
  113       -0.000  -0.005   0.000  -0.005
  114       -0.000  -0.000   0.000  -0.000
  115       -0.000  -0.005   0.000  -0.005
  116       -0.000  -0.000   0.000  -0.000
  117        0.001   0.003   0.000   0.004
  118        0.000  -0.000   0.000  -0.000
  119        0.001   0.003   0.000   0.004
  120        0.000  -0.000   0.000  -0.000
  121       -0.000  -0.007   0.000  -0.008
  122       -0.000  -0.000   0.000  -0.000
  123       -0.000  -0.007   0.000  -0.008
  124       -0.000  -0.000   0.000  -0.000
  125        0.000   0.000   0.000   0.000
  126        0.000   0.000   0.000   0.000
  127        0.000   0.000   0.000   0.000
  128        0.000   0.000   0.000   0.000
  129        0.000   0.000   0.000   0.001
  130        0.000  -0.000   0.000   0.000
  131        0.000   0.000   0.000   0.001
  132        0.000  -0.000   0.000   0.000
  133       -0.000  -0.000   0.000  -0.000
  134        0.000   0.000   0.000   0.000
  135       -0.000  -0.000   0.000  -0.000
  136        0.000   0.000   0.000   0.000
  137        0.000  -0.000   0.000  -0.000
  138        0.000   0.000   0.000   0.000
  139        0.000  -0.000   0.000  -0.000
  140        0.000   0.000   0.000   0.000
  141        0.001   0.009   0.000   0.011
  142        0.000   0.000   0.000   0.000
  143        0.001   0.009   0.000   0.011
  144        0.000   0.000   0.000   0.000
  145        0.000  -0.009   0.000  -0.009
  146       -0.000   0.000   0.000   0.000
  147        0.000  -0.009   0.000  -0.009
  148       -0.000   0.000   0.000   0.000
  149        0.001   0.008   0.000   0.009
  150        0.000   0.000   0.000   0.000
  151        0.001   0.008   0.000   0.009
  152        0.000   0.000   0.000   0.000
  153       -0.000  -0.008   0.000  -0.008
  154        0.000   0.000   0.000   0.000
  155       -0.000  -0.008   0.000  -0.008
  156        0.000   0.000   0.000   0.000
  157        0.000   0.006   0.000   0.006
  158        0.000   0.000   0.000   0.000
  159        0.000   0.006   0.000   0.006
  160        0.000   0.000   0.000   0.000
  161       -0.000  -0.009   0.000  -0.010
  162        0.000   0.000   0.000   0.000
  163       -0.000  -0.009   0.000  -0.010
  164        0.000   0.000   0.000   0.000
  165        0.000   0.000   0.000   0.000
  166       -0.000  -0.000   0.000  -0.000
  167        0.000   0.000   0.000   0.000
  168       -0.000  -0.000   0.000  -0.000
  169       -0.000  -0.000   0.000  -0.000
  170        0.000   0.000   0.000   0.000
  171       -0.000  -0.000   0.000  -0.000
  172        0.000   0.000   0.000   0.000
  173        0.000   0.000   0.000   0.000
  174        0.000  -0.000   0.000  -0.000
  175        0.000   0.000   0.000   0.000
  176        0.000  -0.000   0.000  -0.000
  177        0.000  -0.000   0.000  -0.000
  178       -0.000  -0.000   0.000  -0.000
  179        0.000  -0.000   0.000  -0.000
  180       -0.000  -0.000   0.000  -0.000
  181       -0.001  -0.024   0.000  -0.024
  182       -0.000  -0.000   0.000  -0.000
  183       -0.001  -0.024   0.000  -0.024
  184       -0.000  -0.000   0.000  -0.000
  185       -0.000   0.002   0.000   0.002
  186        0.000   0.000   0.000   0.000
  187       -0.000   0.002   0.000   0.002
  188        0.000   0.000   0.000   0.000
  189        0.000   0.002   0.000   0.002
  190        0.000  -0.000   0.000  -0.000
  191        0.000   0.002   0.000   0.002
  192        0.000  -0.000   0.000  -0.000
  193        0.000  -0.000   0.000  -0.000
  194       -0.000   0.000   0.000   0.000
  195        0.000  -0.000   0.000  -0.000
  196       -0.000   0.000   0.000   0.000
  197        0.000   0.002   0.000   0.002
  198       -0.000  -0.000   0.000  -0.000
  199        0.000   0.002   0.000   0.002
  200       -0.000  -0.000   0.000  -0.000
  201        0.000   0.001   0.000   0.001
  202        0.000   0.000   0.000   0.000
  203        0.000   0.001   0.000   0.001
  204        0.000   0.000   0.000   0.000
  205       -0.001  -0.005   0.000  -0.005
  206       -0.000  -0.000   0.000  -0.000
  207       -0.001  -0.005   0.000  -0.005
  208       -0.000  -0.000   0.000  -0.000
  209       -0.000  -0.007   0.000  -0.007
  210       -0.000  -0.000   0.000  -0.000
  211       -0.000  -0.007   0.000  -0.007
  212       -0.000  -0.000   0.000  -0.000
  213        0.001   0.004   0.000   0.004
  214        0.000   0.000   0.000   0.000
  215        0.001   0.004   0.000   0.004
  216        0.000   0.000   0.000   0.000
  217       -0.001  -0.009   0.000  -0.009
  218       -0.000  -0.000   0.000  -0.000
  219       -0.001  -0.009   0.000  -0.009
  220       -0.000  -0.000   0.000  -0.000
  221       -0.000   0.000   0.000  -0.000
  222        0.000   0.000   0.000   0.000
  223       -0.000   0.000   0.000  -0.000
  224        0.000   0.000   0.000   0.000
  225        0.000   0.000   0.000   0.000
  226        0.000   0.000   0.000   0.000
  227        0.000   0.000   0.000   0.000
  228        0.000   0.000   0.000   0.000
  229       -0.000   0.000   0.000  -0.000
  230        0.000   0.000   0.000   0.000
  231       -0.000   0.000   0.000  -0.000
  232        0.000   0.000   0.000   0.000
  233       -0.000  -0.000   0.000  -0.000
  234        0.000   0.000   0.000   0.000
  235       -0.000  -0.000   0.000  -0.000
  236        0.000   0.000   0.000   0.000
  237        0.000   0.000   0.000   0.000
  238        0.000   0.000   0.000   0.000
  239        0.000   0.000   0.000   0.000
  240        0.000   0.000   0.000   0.000
  241       -0.000   0.000   0.000  -0.000
  242        0.000  -0.000   0.000  -0.000
  243       -0.000   0.000   0.000  -0.000
  244        0.000  -0.000   0.000  -0.000
  245       -0.000  -0.000   0.000  -0.000
  246        0.000  -0.000   0.000   0.000
  247       -0.000  -0.000   0.000  -0.000
  248        0.000  -0.000   0.000   0.000
  249        0.000  -0.000   0.000   0.000
  250        0.000   0.000   0.000   0.000
  251        0.000  -0.000   0.000   0.000
  252        0.000   0.000   0.000   0.000
  253       -0.000  -0.000   0.000  -0.000
  254        0.000  -0.000   0.000   0.000
  255       -0.000  -0.000   0.000  -0.000
  256        0.000  -0.000   0.000   0.000
  257        0.000  -0.000   0.000   0.000
  258        0.000  -0.000   0.000   0.000
  259        0.000  -0.000   0.000   0.000
  260        0.000  -0.000   0.000   0.000
  261        0.000  -0.000   0.000   0.000
  262        0.000   0.000   0.000   0.000
  263        0.000  -0.000   0.000   0.000
  264        0.000   0.000   0.000   0.000
  265       -0.000  -0.000   0.000  -0.000
  266       -0.000  -0.000   0.000  -0.000
  267       -0.000  -0.000   0.000  -0.000
  268       -0.000  -0.000   0.000  -0.000
  269       -0.000  -0.000   0.000  -0.000
  270        0.000   0.000   0.000   0.000
  271       -0.000  -0.000   0.000  -0.000
  272        0.000   0.000   0.000   0.000
  273       -0.000  -0.000   0.000  -0.000
  274        0.000   0.000   0.000   0.000
  275       -0.000  -0.000   0.000  -0.000
  276        0.000   0.000   0.000   0.000
  277        0.000   0.000   0.000   0.000
  278        0.000   0.000   0.000   0.000
  279        0.000   0.000   0.000   0.000
  280        0.000   0.000   0.000   0.000
  281        0.000   0.000   0.000   0.000
  282        0.000  -0.000   0.000   0.000
  283        0.000   0.000   0.000   0.000
  284        0.000  -0.000   0.000   0.000
  285        0.000   0.000   0.000   0.000
  286        0.000   0.000   0.000   0.000
  287        0.000   0.000   0.000   0.000
  288        0.000   0.000   0.000   0.000
  289        0.000   0.000   0.000   0.000
  290        0.000   0.000   0.000   0.000
  291        0.000   0.000   0.000   0.000
  292        0.000   0.000   0.000   0.000
  293       -0.000   0.000   0.000   0.000
  294        0.000   0.000   0.000   0.000
  295       -0.000   0.000   0.000   0.000
  296        0.000   0.000   0.000   0.000
  297        0.000   0.000   0.000   0.000
  298        0.000   0.000   0.000   0.000
  299        0.000   0.000   0.000   0.000
  300        0.000   0.000   0.000   0.000
  301        0.003  -0.000   0.000   0.003
  302        0.000  -0.000   0.000   0.000
  303        0.003  -0.000   0.000   0.003
  304        0.000  -0.000   0.000   0.000
  305       -0.000   0.000   0.000   0.000
  306       -0.000   0.000   0.000  -0.000
  307       -0.000   0.000   0.000   0.000
  308       -0.000   0.000   0.000  -0.000
  309        0.000  -0.000   0.000   0.000
  310       -0.000  -0.000   0.000  -0.000
  311        0.000  -0.000   0.000   0.000
  312       -0.000  -0.000   0.000  -0.000
  313        0.000   0.000   0.000   0.000
  314        0.000  -0.000   0.000  -0.000
  315        0.000   0.000   0.000   0.000
  316        0.000  -0.000   0.000  -0.000
  317        0.001  -0.000   0.000   0.001
  318        0.000  -0.000   0.000   0.000
  319        0.001  -0.000   0.000   0.001
  320        0.000  -0.000   0.000   0.000
  321        0.000   0.000   0.000   0.000
  322       -0.000  -0.000   0.000  -0.000
  323        0.000   0.000   0.000   0.000
  324       -0.000  -0.000   0.000  -0.000
  325        0.000  -0.000   0.000   0.000
  326        0.000  -0.000   0.000   0.000
  327        0.000  -0.000   0.000   0.000
  328        0.000  -0.000   0.000   0.000
  329        0.000   0.000   0.000   0.000
  330        0.000   0.000   0.000   0.000
  331        0.000   0.000   0.000   0.000
  332        0.000   0.000   0.000   0.000
  333        0.000   0.000   0.000   0.000
  334        0.000   0.000   0.000   0.000
  335        0.000   0.000   0.000   0.000
  336        0.000   0.000   0.000   0.000
  337        0.000   0.000   0.000   0.000
  338        0.000   0.000   0.000   0.000
  339        0.000   0.000   0.000   0.000
  340        0.000   0.000   0.000   0.000
  341        0.000   0.000   0.000   0.000
  342        0.000   0.000   0.000   0.000
  343        0.000   0.000   0.000   0.000
  344        0.000   0.000   0.000   0.000
  345       -0.000   0.000   0.000   0.000
  346       -0.000   0.000   0.000   0.000
  347       -0.000   0.000   0.000   0.000
  348       -0.000   0.000   0.000   0.000
  349        0.000   0.000   0.000   0.000
  350       -0.000  -0.000   0.000  -0.000
  351        0.000   0.000   0.000   0.000
  352       -0.000  -0.000   0.000  -0.000
  353       -0.000  -0.000   0.000  -0.000
  354        0.000   0.000   0.000   0.000
  355       -0.000  -0.000   0.000  -0.000
  356        0.000   0.000   0.000   0.000
  357       -0.000  -0.000   0.000  -0.000
  358        0.000   0.000   0.000   0.000
  359       -0.000  -0.000   0.000  -0.000
  360        0.000   0.000   0.000   0.000
  361       -0.000  -0.000   0.000  -0.000
  362        0.000   0.000   0.000   0.000
  363       -0.000  -0.000   0.000  -0.000
  364        0.000   0.000   0.000   0.000
  365        0.000  -0.000   0.000   0.000
  366        0.000  -0.000   0.000   0.000
  367        0.000  -0.000   0.000   0.000
  368        0.000  -0.000   0.000   0.000
  369        0.001  -0.000   0.000   0.000
  370       -0.000   0.000   0.000  -0.000
  371        0.001  -0.000   0.000   0.000
  372       -0.000   0.000   0.000  -0.000
  373        0.000   0.000   0.000   0.000
  374        0.000  -0.000   0.000   0.000
  375        0.000   0.000   0.000   0.000
  376        0.000  -0.000   0.000   0.000
  377       -0.000   0.000   0.000  -0.000
  378       -0.000  -0.000   0.000  -0.000
  379       -0.000   0.000   0.000  -0.000
  380       -0.000  -0.000   0.000  -0.000
  381       -0.000   0.000   0.000  -0.000
  382        0.000  -0.000   0.000   0.000
  383       -0.000   0.000   0.000  -0.000
  384        0.000  -0.000   0.000   0.000
  385       -0.000   0.000   0.000  -0.000
  386        0.000   0.000   0.000   0.000
  387       -0.000   0.000   0.000  -0.000
  388        0.000   0.000   0.000   0.000
  389       -0.000  -0.000   0.000  -0.000
  390       -0.000  -0.000   0.000  -0.000
  391       -0.000  -0.000   0.000  -0.000
  392       -0.000  -0.000   0.000  -0.000
  393        0.000  -0.000   0.000   0.000
  394        0.000   0.000   0.000   0.000
  395        0.000  -0.000   0.000   0.000
  396        0.000   0.000   0.000   0.000
  397        0.000  -0.000   0.000   0.000
  398        0.000  -0.000   0.000   0.000
  399        0.000  -0.000   0.000   0.000
  400        0.000  -0.000   0.000   0.000
  401       -0.000  -0.000   0.000  -0.000
  402        0.000   0.000   0.000   0.000
  403       -0.000  -0.000   0.000  -0.000
  404        0.000   0.000   0.000   0.000
  405        0.000   0.000   0.000   0.000
  406       -0.000   0.000   0.000  -0.000
  407        0.000   0.000   0.000   0.000
  408       -0.000   0.000   0.000  -0.000
  409        0.003  -0.001   0.000   0.003
  410       -0.000  -0.000   0.000  -0.000
  411        0.003  -0.001   0.000   0.003
  412       -0.000  -0.000   0.000  -0.000
  413        0.000   0.000   0.000   0.000
  414        0.000  -0.000   0.000   0.000
  415        0.000   0.000   0.000   0.000
  416        0.000  -0.000   0.000   0.000
  417        0.000  -0.000   0.000   0.000
  418       -0.000  -0.000   0.000  -0.000
  419        0.000  -0.000   0.000   0.000
  420       -0.000  -0.000   0.000  -0.000
  421        0.000   0.000   0.000   0.000
  422        0.000  -0.000   0.000   0.000
  423        0.000   0.000   0.000   0.000
  424        0.000  -0.000   0.000   0.000
  425        0.001  -0.000   0.000   0.001
  426        0.000  -0.000   0.000   0.000
  427        0.001  -0.000   0.000   0.001
  428        0.000  -0.000   0.000   0.000
  429        0.000   0.000   0.000   0.000
  430       -0.000   0.000   0.000  -0.000
  431        0.000   0.000   0.000   0.000
  432       -0.000   0.000   0.000  -0.000
  433        0.000  -0.000   0.000   0.000
  434        0.000  -0.000   0.000   0.000
  435        0.000  -0.000   0.000   0.000
  436        0.000  -0.000   0.000   0.000
--------------------------------------------------
tot          0.152   0.380   7.117   7.649
 

 total amount of memory used by VASP MPI-rank0   447741. kBytes
=======================================================================

   base      :      30000. kBytes
   nonl-proj :     128471. kBytes
   fftplans  :      17427. kBytes
   grid      :      23739. kBytes
   one-center:        970. kBytes
   wavefun   :     247134. kBytes
 
  
  
 General timing and accounting informations for this job:
 ========================================================
  
                  Total CPU time used (sec):     8431.295
                            User time (sec):     8332.481
                          System time (sec):       98.815
                         Elapsed time (sec):     8496.767
  
                   Maximum memory used (kb):     1320276.
                   Average memory used (kb):          N/A
  
                          Minor page faults:      3615049
                          Major page faults:         1200
                 Voluntary context switches:         9122
