  436  436    1    2
  0.1067211E+02  0.1527471E-08  0.1635306E-08  0.1907713E-08  0.5000000E-15
  1.000000000000000E-004
  CAR 
 unknown system                          
   1176      8    768
 
  0.0000000E+00  0.0000000E+00  0.0000000E+00  0.8333333E-01
      1        -85.810892      -85.810892   1.000000   1.000000
      2        -85.810891      -85.810888   1.000000   1.000000
      3        -85.810885      -85.810884   1.000000   1.000000
      4        -85.810882      -85.810882   1.000000   1.000000
      5        -52.006098      -52.006097   1.000000   1.000000
      6        -52.006083      -52.006081   1.000000   1.000000
      7        -52.006071      -52.006069   1.000000   1.000000
      8        -52.006045      -52.006044   1.000000   1.000000
      9        -51.954428      -51.954424   1.000000   1.000000
     10        -51.954418      -51.954415   1.000000   1.000000
     11        -51.954397      -51.954394   1.000000   1.000000
     12        -51.954388      -51.954385   1.000000   1.000000
     13        -51.717213      -51.717211   1.000000   1.000000
     14        -51.717179      -51.717183   1.000000   1.000000
     15        -51.717164      -51.717169   1.000000   1.000000
     16        -51.717143      -51.717141   1.000000   1.000000
     17        -20.773722      -20.773723   1.000000   1.000000
     18        -20.773533      -20.773533   1.000000   1.000000
     19        -20.773004      -20.773004   1.000000   1.000000
     20        -20.772876      -20.772876   1.000000   1.000000
     21        -20.581458      -20.581458   1.000000   1.000000
     22        -20.581450      -20.581450   1.000000   1.000000
     23        -20.581361      -20.581361   1.000000   1.000000
     24        -20.581343      -20.581343   1.000000   1.000000
     25        -20.238332      -20.238332   1.000000   1.000000
     26        -20.237824      -20.237824   1.000000   1.000000
     27        -20.236558      -20.236557   1.000000   1.000000
     28        -20.236280      -20.236280   1.000000   1.000000
     29        -20.089378      -20.089378   1.000000   1.000000
     30        -20.088429      -20.088430   1.000000   1.000000
     31        -20.087116      -20.087116   1.000000   1.000000
     32        -20.086529      -20.086529   1.000000   1.000000
     33        -19.280724      -19.280724   1.000000   1.000000
     34        -19.278476      -19.278476   1.000000   1.000000
     35        -19.278311      -19.278311   1.000000   1.000000
     36        -19.275958      -19.275958   1.000000   1.000000
     37        -19.202243      -19.202243   1.000000   1.000000
     38        -19.202237      -19.202237   1.000000   1.000000
     39        -19.201076      -19.201076   1.000000   1.000000
     40        -19.200839      -19.200839   1.000000   1.000000
     41        -17.208812      -17.208812   1.000000   1.000000
     42        -17.207457      -17.207457   1.000000   1.000000
     43        -17.205574      -17.205574   1.000000   1.000000
     44        -17.204161      -17.204161   1.000000   1.000000
     45        -17.169184      -17.169184   1.000000   1.000000
     46        -17.168396      -17.168396   1.000000   1.000000
     47        -17.137256      -17.137256   1.000000   1.000000
     48        -17.135270      -17.135270   1.000000   1.000000
     49        -16.906727      -16.906727   1.000000   1.000000
     50        -16.901226      -16.901226   1.000000   1.000000
     51        -16.886350      -16.886350   1.000000   1.000000
     52        -16.884159      -16.884159   1.000000   1.000000
     53        -16.873730      -16.873730   1.000000   1.000000
     54        -16.872017      -16.872017   1.000000   1.000000
     55        -16.869820      -16.869820   1.000000   1.000000
     56        -16.866783      -16.866783   1.000000   1.000000
     57        -16.145419      -16.145419   1.000000   1.000000
     58        -16.143266      -16.143266   1.000000   1.000000
     59        -16.139300      -16.139300   1.000000   1.000000
     60        -16.139059      -16.139059   1.000000   1.000000
     61        -16.112215      -16.112215   1.000000   1.000000
     62        -16.105986      -16.105986   1.000000   1.000000
     63        -16.101525      -16.101525   1.000000   1.000000
     64        -16.098047      -16.098047   1.000000   1.000000
     65        -16.050142      -16.050142   1.000000   1.000000
     66        -16.046840      -16.046840   1.000000   1.000000
     67        -16.044885      -16.044885   1.000000   1.000000
     68        -16.043109      -16.043109   1.000000   1.000000
     69        -16.004835      -16.004835   1.000000   1.000000
     70        -16.003117      -16.003118   1.000000   1.000000
     71        -15.999467      -15.999467   1.000000   1.000000
     72        -15.996958      -15.996958   1.000000   1.000000
     73        -15.579708      -15.579708   1.000000   1.000000
     74        -15.572553      -15.572553   1.000000   1.000000
     75        -15.570194      -15.570194   1.000000   1.000000
     76        -15.569948      -15.569948   1.000000   1.000000
     77        -15.568717      -15.568717   1.000000   1.000000
     78        -15.565855      -15.565855   1.000000   1.000000
     79        -15.556879      -15.556879   1.000000   1.000000
     80        -15.550337      -15.550337   1.000000   1.000000
     81        -14.901632      -14.901632   1.000000   1.000000
     82        -14.894435      -14.894435   1.000000   1.000000
     83        -14.878752      -14.878752   1.000000   1.000000
     84        -14.862756      -14.862756   1.000000   1.000000
     85        -14.836334      -14.836334   1.000000   1.000000
     86        -14.834358      -14.834358   1.000000   1.000000
     87        -14.831161      -14.831161   1.000000   1.000000
     88        -14.826200      -14.826200   1.000000   1.000000
     89        -14.596687      -14.596687   1.000000   1.000000
     90        -14.577460      -14.577460   1.000000   1.000000
     91        -14.573833      -14.573833   1.000000   1.000000
     92        -14.564569      -14.564569   1.000000   1.000000
     93        -14.557341      -14.557341   1.000000   1.000000
     94        -14.555773      -14.555773   1.000000   1.000000
     95        -14.550218      -14.550218   1.000000   1.000000
     96        -14.539032      -14.539032   1.000000   1.000000
     97        -13.949169      -13.949169   1.000000   1.000000
     98        -13.941686      -13.941686   1.000000   1.000000
     99        -13.929721      -13.929721   1.000000   1.000000
    100        -13.928968      -13.928968   1.000000   1.000000
    101        -13.917920      -13.917920   1.000000   1.000000
    102        -13.912336      -13.912336   1.000000   1.000000
    103        -13.910226      -13.910226   1.000000   1.000000
    104        -13.898422      -13.898422   1.000000   1.000000
    105        -13.251604      -13.251604   1.000000   1.000000
    106        -13.247755      -13.247755   1.000000   1.000000
    107        -13.243666      -13.243666   1.000000   1.000000
    108        -13.243044      -13.243044   1.000000   1.000000
    109        -13.210641      -13.210641   1.000000   1.000000
    110        -13.210020      -13.210020   1.000000   1.000000
    111        -13.208391      -13.208391   1.000000   1.000000
    112        -13.205159      -13.205159   1.000000   1.000000
    113        -12.672254      -12.672254   1.000000   1.000000
    114        -12.667966      -12.667966   1.000000   1.000000
    115        -12.664901      -12.664901   1.000000   1.000000
    116        -12.648585      -12.648585   1.000000   1.000000
    117        -12.601605      -12.601605   1.000000   1.000000
    118        -12.585369      -12.585369   1.000000   1.000000
    119        -12.584699      -12.584699   1.000000   1.000000
    120        -12.579971      -12.579971   1.000000   1.000000
    121        -12.525758      -12.525758   1.000000   1.000000
    122        -12.524880      -12.524880   1.000000   1.000000
    123        -12.492888      -12.492888   1.000000   1.000000
    124        -12.488218      -12.488218   1.000000   1.000000
    125        -12.476989      -12.476989   1.000000   1.000000
    126        -12.472830      -12.472830   1.000000   1.000000
    127        -12.471007      -12.471007   1.000000   1.000000
    128        -12.466147      -12.466147   1.000000   1.000000
    129        -12.454454      -12.454454   1.000000   1.000000
    130        -12.450761      -12.450761   1.000000   1.000000
    131        -12.428957      -12.428957   1.000000   1.000000
    132        -12.419312      -12.419312   1.000000   1.000000
    133        -12.412366      -12.412366   1.000000   1.000000
    134        -12.410819      -12.410819   1.000000   1.000000
    135        -12.403213      -12.403213   1.000000   1.000000
    136        -12.401188      -12.401188   1.000000   1.000000
    137        -12.379953      -12.379953   1.000000   1.000000
    138        -12.377867      -12.377867   1.000000   1.000000
    139        -12.374818      -12.374818   1.000000   1.000000
    140        -12.371460      -12.371460   1.000000   1.000000
    141        -12.252771      -12.252771   1.000000   1.000000
    142        -12.249502      -12.249502   1.000000   1.000000
    143        -12.248143      -12.248143   1.000000   1.000000
    144        -12.240591      -12.240591   1.000000   1.000000
    145        -12.209213      -12.209213   1.000000   1.000000
    146        -12.195803      -12.195803   1.000000   1.000000
    147        -12.192416      -12.192416   1.000000   1.000000
    148        -12.176501      -12.176501   1.000000   1.000000
    149        -12.170642      -12.170642   1.000000   1.000000
    150        -12.163251      -12.163251   1.000000   1.000000
    151        -12.160646      -12.160646   1.000000   1.000000
    152        -12.157049      -12.157049   1.000000   1.000000
    153        -11.970178      -11.970178   1.000000   1.000000
    154        -11.969113      -11.969113   1.000000   1.000000
    155        -11.946681      -11.946681   1.000000   1.000000
    156        -11.939227      -11.939227   1.000000   1.000000
    157        -11.915413      -11.915413   1.000000   1.000000
    158        -11.909218      -11.909218   1.000000   1.000000
    159        -11.907506      -11.907506   1.000000   1.000000
    160        -11.905957      -11.905957   1.000000   1.000000
    161        -11.627444      -11.627444   1.000000   1.000000
    162        -11.618203      -11.618202   1.000000   1.000000
    163        -11.597982      -11.597982   1.000000   1.000000
    164        -11.591947      -11.591947   1.000000   1.000000
    165        -11.586308      -11.586308   1.000000   1.000000
    166        -11.584413      -11.584413   1.000000   1.000000
    167        -11.574629      -11.574629   1.000000   1.000000
    168        -11.568462      -11.568462   1.000000   1.000000
    169        -10.741561      -10.741561   1.000000   1.000000
    170        -10.736207      -10.736206   1.000000   1.000000
    171        -10.728084      -10.728084   1.000000   1.000000
    172        -10.727702      -10.727702   1.000000   1.000000
    173        -10.723162      -10.723162   1.000000   1.000000
    174        -10.723107      -10.723107   1.000000   1.000000
    175        -10.710761      -10.710762   1.000000   1.000000
    176        -10.707910      -10.707910   1.000000   1.000000
    177        -10.612081      -10.612081   1.000000   1.000000
    178        -10.608210      -10.608210   1.000000   1.000000
    179        -10.586226      -10.586226   1.000000   1.000000
    180        -10.584079      -10.584079   1.000000   1.000000
    181        -10.565432      -10.565432   1.000000   1.000000
    182        -10.564687      -10.564687   1.000000   1.000000
    183        -10.557730      -10.557730   1.000000   1.000000
    184        -10.553125      -10.553125   1.000000   1.000000
    185         -9.985545       -9.985545   1.000000   1.000000
    186         -9.979086       -9.979086   1.000000   1.000000
    187         -9.969351       -9.969351   1.000000   1.000000
    188         -9.954050       -9.954050   1.000000   1.000000
    189         -9.938737       -9.938737   1.000000   1.000000
    190         -9.914854       -9.914854   1.000000   1.000000
    191         -9.900948       -9.900948   1.000000   1.000000
    192         -9.889516       -9.889516   1.000000   1.000000
    193         -9.499751       -9.499751   1.000000   1.000000
    194         -9.470522       -9.470522   1.000000   1.000000
    195         -9.469675       -9.469675   1.000000   1.000000
    196         -9.451166       -9.451166   1.000000   1.000000
    197         -9.318927       -9.318927   1.000000   1.000000
    198         -9.315542       -9.315542   1.000000   1.000000
    199         -9.301455       -9.301455   1.000000   1.000000
    200         -9.293437       -9.293437   1.000000   1.000000
    201         -9.153022       -9.153022   1.000000   1.000000
    202         -9.149549       -9.149549   1.000000   1.000000
    203         -9.138356       -9.138356   1.000000   1.000000
    204         -9.130436       -9.130436   1.000000   1.000000
    205         -9.111408       -9.111408   1.000000   1.000000
    206         -9.111252       -9.111252   1.000000   1.000000
    207         -9.105809       -9.105809   1.000000   1.000000
    208         -9.104159       -9.104159   1.000000   1.000000
    209         -8.871520       -8.871520   1.000000   1.000000
    210         -8.871447       -8.871447   1.000000   1.000000
    211         -8.866798       -8.866798   1.000000   1.000000
    212         -8.841976       -8.841976   1.000000   1.000000
    213         -8.805232       -8.805233   1.000000   1.000000
    214         -8.781772       -8.781772   1.000000   1.000000
    215         -8.771441       -8.771441   1.000000   1.000000
    216         -8.754035       -8.754035   1.000000   1.000000
    217         -8.676495       -8.676495   1.000000   1.000000
    218         -8.673741       -8.673741   1.000000   1.000000
    219         -8.658019       -8.658019   1.000000   1.000000
    220         -8.633890       -8.633890   1.000000   1.000000
    221         -8.625918       -8.625918   1.000000   1.000000
    222         -8.600603       -8.600604   1.000000   1.000000
    223         -8.588735       -8.588735   1.000000   1.000000
    224         -8.580885       -8.580885   1.000000   1.000000
    225         -8.325612       -8.325612   1.000000   1.000000
    226         -8.304506       -8.304506   1.000000   1.000000
    227         -8.299610       -8.299610   1.000000   1.000000
    228         -8.296596       -8.296596   1.000000   1.000000
    229         -8.243220       -8.243220   1.000000   1.000000
    230         -8.211148       -8.211148   1.000000   1.000000
    231         -8.186571       -8.186571   1.000000   1.000000
    232         -8.172276       -8.172276   1.000000   1.000000
    233         -7.836556       -7.836556   1.000000   1.000000
    234         -7.834206       -7.834206   1.000000   1.000000
    235         -7.815610       -7.815610   1.000000   1.000000
    236         -7.811678       -7.811678   1.000000   1.000000
    237         -7.789752       -7.789752   1.000000   1.000000
    238         -7.784758       -7.784758   1.000000   1.000000
    239         -7.780597       -7.780597   1.000000   1.000000
    240         -7.768713       -7.768713   1.000000   1.000000
    241         -7.765671       -7.765671   1.000000   1.000000
    242         -7.732918       -7.732918   1.000000   1.000000
    243         -7.725319       -7.725319   1.000000   1.000000
    244         -7.719900       -7.719900   1.000000   1.000000
    245         -7.716127       -7.716127   1.000000   1.000000
    246         -7.705217       -7.705217   1.000000   1.000000
    247         -7.691578       -7.691578   1.000000   1.000000
    248         -7.675447       -7.675447   1.000000   1.000000
    249         -7.387845       -7.387845   1.000000   1.000000
    250         -7.367152       -7.367152   1.000000   1.000000
    251         -7.358422       -7.358422   1.000000   1.000000
    252         -7.349770       -7.349770   1.000000   1.000000
    253         -7.332524       -7.332524   1.000000   1.000000
    254         -7.328266       -7.328266   1.000000   1.000000
    255         -7.324301       -7.324301   1.000000   1.000000
    256         -7.295912       -7.295912   1.000000   1.000000
    257         -7.101252       -7.101252   1.000000   1.000000
    258         -7.090033       -7.090033   1.000000   1.000000
    259         -7.065013       -7.065013   1.000000   1.000000
    260         -7.060831       -7.060831   1.000000   1.000000
    261         -7.029117       -7.029117   1.000000   1.000000
    262         -7.009226       -7.009225   1.000000   1.000000
    263         -7.002513       -7.002513   1.000000   1.000000
    264         -6.976445       -6.976445   1.000000   1.000000
    265         -6.972692       -6.972692   1.000000   1.000000
    266         -6.968835       -6.968835   1.000000   1.000000
    267         -6.951266       -6.951266   1.000000   1.000000
    268         -6.944656       -6.944656   1.000000   1.000000
    269         -6.938355       -6.938355   1.000000   1.000000
    270         -6.937151       -6.937151   1.000000   1.000000
    271         -6.930006       -6.930006   1.000000   1.000000
    272         -6.922272       -6.922271   1.000000   1.000000
    273         -6.915195       -6.915195   1.000000   1.000000
    274         -6.907046       -6.907046   1.000000   1.000000
    275         -6.904905       -6.904905   1.000000   1.000000
    276         -6.895485       -6.895485   1.000000   1.000000
    277         -6.820374       -6.820374   1.000000   1.000000
    278         -6.819434       -6.819434   1.000000   1.000000
    279         -6.806289       -6.806289   1.000000   1.000000
    280         -6.803593       -6.803593   1.000000   1.000000
    281         -6.792092       -6.792092   1.000000   1.000000
    282         -6.781624       -6.781624   1.000000   1.000000
    283         -6.743632       -6.743632   1.000000   1.000000
    284         -6.740750       -6.740750   1.000000   1.000000
    285         -6.684575       -6.684575   1.000000   1.000000
    286         -6.670110       -6.670110   1.000000   1.000000
    287         -6.666254       -6.666254   1.000000   1.000000
    288         -6.649552       -6.649552   1.000000   1.000000
    289         -6.644851       -6.644851   1.000000   1.000000
    290         -6.608543       -6.608543   1.000000   1.000000
    291         -6.588301       -6.588301   1.000000   1.000000
    292         -6.575620       -6.575620   1.000000   1.000000
    293         -6.528792       -6.528792   1.000000   1.000000
    294         -6.515390       -6.515390   1.000000   1.000000
    295         -6.499072       -6.499072   1.000000   1.000000
    296         -6.491225       -6.491225   1.000000   1.000000
    297         -6.478333       -6.478333   1.000000   1.000000
    298         -6.472870       -6.472870   1.000000   1.000000
    299         -6.451718       -6.451717   1.000000   1.000000
    300         -6.431569       -6.431569   1.000000   1.000000
    301         -6.399052       -6.399052   1.000000   1.000000
    302         -6.397861       -6.397861   1.000000   1.000000
    303         -6.389032       -6.389032   1.000000   1.000000
    304         -6.376149       -6.376149   1.000000   1.000000
    305         -6.348387       -6.348387   1.000000   1.000000
    306         -6.346097       -6.346097   1.000000   1.000000
    307         -6.319237       -6.319237   1.000000   1.000000
    308         -6.305421       -6.305421   1.000000   1.000000
    309         -6.290129       -6.290129   1.000000   1.000000
    310         -6.280031       -6.280031   1.000000   1.000000
    311         -6.276233       -6.276233   1.000000   1.000000
    312         -6.274640       -6.274640   1.000000   1.000000
    313         -6.255653       -6.255653   1.000000   1.000000
    314         -6.249024       -6.249024   1.000000   1.000000
    315         -6.244115       -6.244115   1.000000   1.000000
    316         -6.230829       -6.230829   1.000000   1.000000
    317         -6.221205       -6.221205   1.000000   1.000000
    318         -6.217791       -6.217791   1.000000   1.000000
    319         -6.205701       -6.205701   1.000000   1.000000
    320         -6.192725       -6.192725   1.000000   1.000000
    321         -6.185375       -6.185375   1.000000   1.000000
    322         -6.184811       -6.184811   1.000000   1.000000
    323         -6.174120       -6.174120   1.000000   1.000000
    324         -6.162001       -6.162001   1.000000   1.000000
    325         -6.151465       -6.151465   1.000000   1.000000
    326         -6.135100       -6.135101   1.000000   1.000000
    327         -6.113551       -6.113551   1.000000   1.000000
    328         -6.112404       -6.112404   1.000000   1.000000
    329         -6.111366       -6.111366   1.000000   1.000000
    330         -6.097212       -6.097212   1.000000   1.000000
    331         -6.095217       -6.095217   1.000000   1.000000
    332         -6.093718       -6.093718   1.000000   1.000000
    333         -6.083570       -6.083570   1.000000   1.000000
    334         -6.069207       -6.069207   1.000000   1.000000
    335         -6.061891       -6.061891   1.000000   1.000000
    336         -6.059280       -6.059280   1.000000   1.000000
    337         -6.043994       -6.043994   1.000000   1.000000
    338         -6.042296       -6.042296   1.000000   1.000000
    339         -6.036465       -6.036465   1.000000   1.000000
    340         -6.034516       -6.034516   1.000000   1.000000
    341         -6.029825       -6.029825   1.000000   1.000000
    342         -6.018904       -6.018904   1.000000   1.000000
    343         -6.005350       -6.005350   1.000000   1.000000
    344         -5.990599       -5.990599   1.000000   1.000000
    345         -5.857161       -5.857161   1.000000   1.000000
    346         -5.838643       -5.838643   1.000000   1.000000
    347         -5.825600       -5.825599   1.000000   1.000000
    348         -5.821308       -5.821308   1.000000   1.000000
    349         -5.757189       -5.757189   1.000000   1.000000
    350         -5.755366       -5.755366   1.000000   1.000000
    351         -5.755140       -5.755140   1.000000   1.000000
    352         -5.727533       -5.727533   1.000000   1.000000
    353         -5.720145       -5.720145   1.000000   1.000000
    354         -5.718939       -5.718939   1.000000   1.000000
    355         -5.651480       -5.651480   1.000000   1.000000
    356         -5.637072       -5.637072   1.000000   1.000000
    357         -5.575549       -5.575549   1.000000   1.000000
    358         -5.536154       -5.536154   1.000000   1.000000
    359         -5.528998       -5.528998   1.000000   1.000000
    360         -5.519804       -5.519804   1.000000   1.000000
    361         -5.413892       -5.413892   1.000000   1.000000
    362         -5.381782       -5.381782   1.000000   1.000000
    363         -5.369650       -5.369650   1.000000   1.000000
    364         -5.349398       -5.349398   1.000000   1.000000
    365         -5.342351       -5.342352   1.000000   1.000000
    366         -5.312835       -5.312835   1.000000   1.000000
    367         -5.290178       -5.290178   1.000000   1.000000
    368         -5.278348       -5.278348   1.000000   1.000000
    369         -5.273085       -5.273085   1.000000   1.000000
    370         -5.271383       -5.271383   1.000000   1.000000
    371         -5.255141       -5.255142   1.000000   1.000000
    372         -5.250446       -5.250446   1.000000   1.000000
    373         -5.219107       -5.219107   1.000000   1.000000
    374         -5.211762       -5.211762   1.000000   1.000000
    375         -5.202375       -5.202375   1.000000   1.000000
    376         -5.196287       -5.196287   1.000000   1.000000
    377         -5.178332       -5.178332   1.000000   1.000000
    378         -5.176158       -5.176157   1.000000   1.000000
    379         -5.145541       -5.145541   1.000000   1.000000
    380         -5.143667       -5.143667   1.000000   1.000000
    381         -5.142349       -5.142349   1.000000   1.000000
    382         -5.117912       -5.117913   1.000000   1.000000
    383         -5.107127       -5.107127   1.000000   1.000000
    384         -5.105073       -5.105073   1.000000   1.000000
    385         -5.077060       -5.077060   1.000000   1.000000
    386         -5.073353       -5.073353   1.000000   1.000000
    387         -5.068279       -5.068279   1.000000   1.000000
    388         -5.053309       -5.053309   1.000000   1.000000
    389         -5.045286       -5.045286   1.000000   1.000000
    390         -5.038940       -5.038940   1.000000   1.000000
    391         -5.022586       -5.022586   1.000000   1.000000
    392         -5.011658       -5.011658   1.000000   1.000000
    393         -4.882577       -4.882577   1.000000   1.000000
    394         -4.882402       -4.882402   1.000000   1.000000
    395         -4.861743       -4.861743   1.000000   1.000000
    396         -4.842918       -4.842918   1.000000   1.000000
    397         -4.815941       -4.815941   1.000000   1.000000
    398         -4.810989       -4.810989   1.000000   1.000000
    399         -4.798220       -4.798220   1.000000   1.000000
    400         -4.787894       -4.787893   1.000000   1.000000
    401         -4.787015       -4.787015   1.000000   1.000000
    402         -4.770212       -4.770212   1.000000   1.000000
    403         -4.755576       -4.755576   1.000000   1.000000
    404         -4.744268       -4.744268   1.000000   1.000000
    405         -4.741691       -4.741691   1.000000   1.000000
    406         -4.733940       -4.733940   1.000000   1.000000
    407         -4.722932       -4.722932   1.000000   1.000000
    408         -4.721091       -4.721091   1.000000   1.000000
    409         -4.703539       -4.703539   1.000000   1.000000
    410         -4.701131       -4.701131   1.000000   1.000000
    411         -4.683623       -4.683623   1.000000   1.000000
    412         -4.667848       -4.667848   1.000000   1.000000
    413         -4.665344       -4.665344   1.000000   1.000000
    414         -4.661381       -4.661381   1.000000   1.000000
    415         -4.650829       -4.650829   1.000000   1.000000
    416         -4.646123       -4.646123   1.000000   1.000000
    417         -4.639975       -4.639975   1.000000   1.000000
    418         -4.617814       -4.617813   1.000000   1.000000
    419         -4.604680       -4.604680   1.000000   1.000000
    420         -4.597051       -4.597051   1.000000   1.000000
    421         -4.593738       -4.593738   1.000000   1.000000
    422         -4.576543       -4.576543   1.000000   1.000000
    423         -4.566150       -4.566150   1.000000   1.000000
    424         -4.566058       -4.566058   1.000000   1.000000
    425         -4.561049       -4.561049   1.000000   1.000000
    426         -4.549712       -4.549711   1.000000   1.000000
    427         -4.539459       -4.539459   1.000000   1.000000
    428         -4.527106       -4.527106   1.000000   1.000000
    429         -4.519804       -4.519804   1.000000   1.000000
    430         -4.506246       -4.506246   1.000000   1.000000
    431         -4.497389       -4.497389   1.000000   1.000000
    432         -4.491892       -4.491892   1.000000   1.000000
    433         -4.484666       -4.484666   1.000000   1.000000
    434         -4.480920       -4.480920   1.000000   1.000000
    435         -4.455272       -4.455272   1.000000   1.000000
    436         -4.426302       -4.426302   1.000000   1.000000
    437         -4.408090       -4.408091   1.000000   1.000000
    438         -4.365823       -4.365823   1.000000   1.000000
    439         -4.365170       -4.365170   1.000000   1.000000
    440         -4.330212       -4.330212   1.000000   1.000000
    441         -4.324297       -4.324297   1.000000   1.000000
    442         -4.312284       -4.312284   1.000000   1.000000
    443         -4.309438       -4.309438   1.000000   1.000000
    444         -4.294270       -4.294270   1.000000   1.000000
    445         -4.279755       -4.279755   1.000000   1.000000
    446         -4.273426       -4.273426   1.000000   1.000000
    447         -4.273282       -4.273282   1.000000   1.000000
    448         -4.249257       -4.249257   1.000000   1.000000
    449         -4.212080       -4.212080   1.000000   1.000000
    450         -4.200288       -4.200288   1.000000   1.000000
    451         -4.174221       -4.174221   1.000000   1.000000
    452         -4.159140       -4.159140   1.000000   1.000000
    453         -4.158940       -4.158940   1.000000   1.000000
    454         -4.158136       -4.158136   1.000000   1.000000
    455         -4.128754       -4.128754   1.000000   1.000000
    456         -4.112538       -4.112538   1.000000   1.000000
    457         -4.077295       -4.077296   1.000000   1.000000
    458         -4.074748       -4.074748   1.000000   1.000000
    459         -4.074262       -4.074262   1.000000   1.000000
    460         -4.064095       -4.064095   1.000000   1.000000
    461         -3.959275       -3.959275   1.000000   1.000000
    462         -3.954607       -3.954607   1.000000   1.000000
    463         -3.893904       -3.893904   1.000000   1.000000
    464         -3.889543       -3.889543   1.000000   1.000000