  436  436    1    2
  0.1075341E+02  0.1540006E-08  0.1637390E-08  0.1902634E-08  0.5000000E-15
  1.000000000000000E-004
  CAR 
 unknown system                          
   1176      8    768
 
  0.0000000E+00  0.0000000E+00  0.0000000E+00  0.8333333E-01
      1        -88.850721      -85.848324   1.000000   1.000000
      2        -88.850720      -85.848322   1.000000   1.000000
      3        -85.848352      -84.500478   1.000000   1.000000
      4        -85.848349      -84.500477   1.000000   1.000000
      5        -55.478433      -52.039049   1.000000   1.000000
      6        -55.478401      -52.039034   1.000000   1.000000
      7        -54.845718      -51.994498   1.000000   1.000000
      8        -54.845705      -51.994482   1.000000   1.000000
      9        -54.295815      -51.755100   1.000000   1.000000
     10        -54.295809      -51.755056   1.000000   1.000000
     11        -52.039065      -50.791444   1.000000   1.000000
     12        -52.039051      -50.791417   1.000000   1.000000
     13        -51.994537      -50.651070   1.000000   1.000000
     14        -51.994520      -50.651061   1.000000   1.000000
     15        -51.755125      -50.444486   1.000000   1.000000
     16        -51.755080      -50.444479   1.000000   1.000000
     17        -20.855050      -20.797491   1.000000   1.000000
     18        -20.854854      -20.796847   1.000000   1.000000
     19        -20.797484      -20.748174   1.000000   1.000000
     20        -20.796841      -20.747931   1.000000   1.000000
     21        -20.745760      -20.641409   1.000000   1.000000
     22        -20.745750      -20.641394   1.000000   1.000000
     23        -20.605185      -20.605193   1.000000   1.000000
     24        -20.605116      -20.605124   1.000000   1.000000
     25        -20.276959      -20.276985   1.000000   1.000000
     26        -20.276604      -20.276630   1.000000   1.000000
     27        -20.121274      -20.121298   1.000000   1.000000
     28        -20.120557      -20.120582   1.000000   1.000000
     29        -20.085116      -20.055323   1.000000   1.000000
     30        -20.084516      -20.054770   1.000000   1.000000
     31        -19.995763      -19.967565   1.000000   1.000000
     32        -19.995178      -19.966960   1.000000   1.000000
     33        -19.315416      -19.315434   1.000000   1.000000
     34        -19.313295      -19.313313   1.000000   1.000000
     35        -19.237514      -19.237531   1.000000   1.000000
     36        -19.237473      -19.237489   1.000000   1.000000
     37        -19.155621      -19.124742   1.000000   1.000000
     38        -19.153041      -19.122127   1.000000   1.000000
     39        -19.128112      -19.094512   1.000000   1.000000
     40        -19.126809      -19.093157   1.000000   1.000000
     41        -17.247195      -17.247230   1.000000   1.000000
     42        -17.246979      -17.246999   1.000000   1.000000
     43        -17.191524      -17.191425   1.000000   1.000000
     44        -17.190918      -17.190807   1.000000   1.000000
     45        -17.152806      -17.147680   1.000000   1.000000
     46        -17.152714      -17.147648   1.000000   1.000000
     47        -17.098799      -17.093025   1.000000   1.000000
     48        -17.097124      -17.091340   1.000000   1.000000
     49        -16.943010      -16.942730   1.000000   1.000000
     50        -16.931707      -16.927007   1.000000   1.000000
     51        -16.925667      -16.924936   1.000000   1.000000
     52        -16.920202      -16.915945   1.000000   1.000000
     53        -16.909388      -16.909317   1.000000   1.000000
     54        -16.907796      -16.907650   1.000000   1.000000
     55        -16.898518      -16.892701   1.000000   1.000000
     56        -16.894351      -16.888502   1.000000   1.000000
     57        -16.183690      -16.183732   1.000000   1.000000
     58        -16.178941      -16.178980   1.000000   1.000000
     59        -16.141658      -16.141661   1.000000   1.000000
     60        -16.131394      -16.131406   1.000000   1.000000
     61        -16.120429      -16.121154   1.000000   1.000000
     62        -16.112891      -16.113522   1.000000   1.000000
     63        -16.101322      -16.099302   1.000000   1.000000
     64        -16.089184      -16.086648   1.000000   1.000000
     65        -16.078940      -16.078857   1.000000   1.000000
     66        -16.075012      -16.074964   1.000000   1.000000
     67        -16.059093      -16.055274   1.000000   1.000000
     68        -16.057819      -16.053875   1.000000   1.000000
     69        -16.047223      -16.045683   1.000000   1.000000
     70        -16.043327      -16.043041   1.000000   1.000000
     71        -16.043020      -16.042208   1.000000   1.000000
     72        -16.035941      -16.033121   1.000000   1.000000
     73        -15.619042      -15.618942   1.000000   1.000000
     74        -15.610052      -15.609770   1.000000   1.000000
     75        -15.602535      -15.602521   1.000000   1.000000
     76        -15.600884      -15.599516   1.000000   1.000000
     77        -15.599239      -15.597024   1.000000   1.000000
     78        -15.589008      -15.588096   1.000000   1.000000
     79        -15.579460      -15.576301   1.000000   1.000000
     80        -15.577014      -15.574015   1.000000   1.000000
     81        -14.932161      -14.932186   1.000000   1.000000
     82        -14.923227      -14.923255   1.000000   1.000000
     83        -14.870731      -14.870736   1.000000   1.000000
     84        -14.870695      -14.870707   1.000000   1.000000
     85        -14.832193      -14.831885   1.000000   1.000000
     86        -14.824670      -14.824537   1.000000   1.000000
     87        -14.781964      -14.780704   1.000000   1.000000
     88        -14.778283      -14.777214   1.000000   1.000000
     89        -14.626675      -14.626810   1.000000   1.000000
     90        -14.608199      -14.608344   1.000000   1.000000
     91        -14.593400      -14.593527   1.000000   1.000000
     92        -14.584721      -14.586120   1.000000   1.000000
     93        -14.578543      -14.578642   1.000000   1.000000
     94        -14.571530      -14.572956   1.000000   1.000000
     95        -14.554437      -14.554366   1.000000   1.000000
     96        -14.546497      -14.546386   1.000000   1.000000
     97        -13.980661      -13.980289   1.000000   1.000000
     98        -13.975288      -13.974999   1.000000   1.000000
     99        -13.949458      -13.949251   1.000000   1.000000
    100        -13.945997      -13.944301   1.000000   1.000000
    101        -13.944714      -13.942112   1.000000   1.000000
    102        -13.940734      -13.936751   1.000000   1.000000
    103        -13.915668      -13.910702   1.000000   1.000000
    104        -13.908549      -13.903759   1.000000   1.000000
    105        -13.287138      -13.286554   1.000000   1.000000
    106        -13.283395      -13.283137   1.000000   1.000000
    107        -13.271568      -13.262010   1.000000   1.000000
    108        -13.271127      -13.261329   1.000000   1.000000
    109        -13.248666      -13.248558   1.000000   1.000000
    110        -13.247147      -13.246730   1.000000   1.000000
    111        -13.240559      -13.229126   1.000000   1.000000
    112        -13.240345      -13.228968   1.000000   1.000000
    113        -12.710640      -12.710562   1.000000   1.000000
    114        -12.701809      -12.701411   1.000000   1.000000
    115        -12.700136      -12.698288   1.000000   1.000000
    116        -12.685583      -12.684181   1.000000   1.000000
    117        -12.635766      -12.635537   1.000000   1.000000
    118        -12.622600      -12.622542   1.000000   1.000000
    119        -12.612677      -12.610951   1.000000   1.000000
    120        -12.601661      -12.600017   1.000000   1.000000
    121        -12.565517      -12.565516   1.000000   1.000000
    122        -12.561095      -12.560521   1.000000   1.000000
    123        -12.533162      -12.533053   1.000000   1.000000
    124        -12.531458      -12.531023   1.000000   1.000000
    125        -12.511599      -12.511434   1.000000   1.000000
    126        -12.504531      -12.504122   1.000000   1.000000
    127        -12.496726      -12.496433   1.000000   1.000000
    128        -12.491122      -12.490757   1.000000   1.000000
    129        -12.483230      -12.483074   1.000000   1.000000
    130        -12.475038      -12.474457   1.000000   1.000000
    131        -12.468789      -12.468382   1.000000   1.000000
    132        -12.461477      -12.461206   1.000000   1.000000
    133        -12.451397      -12.451038   1.000000   1.000000
    134        -12.448845      -12.448650   1.000000   1.000000
    135        -12.443525      -12.443333   1.000000   1.000000
    136        -12.442959      -12.442635   1.000000   1.000000
    137        -12.407994      -12.407846   1.000000   1.000000
    138        -12.400451      -12.400242   1.000000   1.000000
    139        -12.400364      -12.399774   1.000000   1.000000
    140        -12.391220      -12.390562   1.000000   1.000000
    141        -12.300346      -12.299540   1.000000   1.000000
    142        -12.299354      -12.298564   1.000000   1.000000
    143        -12.289097      -12.289079   1.000000   1.000000
    144        -12.282024      -12.281955   1.000000   1.000000
    145        -12.241773      -12.241787   1.000000   1.000000
    146        -12.228355      -12.228359   1.000000   1.000000
    147        -12.200871      -12.200862   1.000000   1.000000
    148        -12.198311      -12.198283   1.000000   1.000000
    149        -12.181817      -12.180197   1.000000   1.000000
    150        -12.166095      -12.164672   1.000000   1.000000
    151        -12.124897      -12.121928   1.000000   1.000000
    152        -12.118196      -12.115685   1.000000   1.000000
    153        -11.999022      -11.999034   1.000000   1.000000
    154        -11.997944      -11.997930   1.000000   1.000000
    155        -11.947637      -11.947504   1.000000   1.000000
    156        -11.947238      -11.947224   1.000000   1.000000
    157        -11.881406      -11.874653   1.000000   1.000000
    158        -11.879644      -11.872633   1.000000   1.000000
    159        -11.824612      -11.817058   1.000000   1.000000
    160        -11.824204      -11.816780   1.000000   1.000000
    161        -11.659272      -11.659304   1.000000   1.000000
    162        -11.633964      -11.634006   1.000000   1.000000
    163        -11.623820      -11.623998   1.000000   1.000000
    164        -11.619547      -11.619565   1.000000   1.000000
    165        -11.609035      -11.609177   1.000000   1.000000
    166        -11.603784      -11.603774   1.000000   1.000000
    167        -11.578432      -11.576683   1.000000   1.000000
    168        -11.573831      -11.572079   1.000000   1.000000
    169        -10.774745      -10.773774   1.000000   1.000000
    170        -10.772544      -10.771783   1.000000   1.000000
    171        -10.755211      -10.754724   1.000000   1.000000
    172        -10.752424      -10.751803   1.000000   1.000000
    173        -10.729114      -10.712189   1.000000   1.000000
    174        -10.727837      -10.711451   1.000000   1.000000
    175        -10.693064      -10.678840   1.000000   1.000000
    176        -10.691195      -10.677620   1.000000   1.000000
    177        -10.637615      -10.635154   1.000000   1.000000
    178        -10.631998      -10.628335   1.000000   1.000000
    179        -10.618299      -10.615089   1.000000   1.000000
    180        -10.616884      -10.615039   1.000000   1.000000
    181        -10.607258      -10.605159   1.000000   1.000000
    182        -10.594805      -10.592644   1.000000   1.000000
    183        -10.589960      -10.586446   1.000000   1.000000
    184        -10.589117      -10.585809   1.000000   1.000000
    185        -10.013673      -10.013023   1.000000   1.000000
    186        -10.013022      -10.011344   1.000000   1.000000
    187         -9.991017       -9.984587   1.000000   1.000000
    188         -9.983619       -9.980825   1.000000   1.000000
    189         -9.955685       -9.951951   1.000000   1.000000
    190         -9.949578       -9.943482   1.000000   1.000000
    191         -9.937541       -9.935350   1.000000   1.000000
    192         -9.931246       -9.926682   1.000000   1.000000
    193         -9.524106       -9.523473   1.000000   1.000000
    194         -9.500128       -9.499820   1.000000   1.000000
    195         -9.446094       -9.423436   1.000000   1.000000
    196         -9.402321       -9.379126   1.000000   1.000000
    197         -9.349637       -9.349213   1.000000   1.000000
    198         -9.347373       -9.345838   1.000000   1.000000
    199         -9.305825       -9.296688   1.000000   1.000000
    200         -9.291054       -9.282584   1.000000   1.000000
    201         -9.182911       -9.182839   1.000000   1.000000
    202         -9.179918       -9.179685   1.000000   1.000000
    203         -9.144677       -9.144396   1.000000   1.000000
    204         -9.143252       -9.143198   1.000000   1.000000
    205         -9.116925       -9.105208   1.000000   1.000000
    206         -9.116493       -9.105142   1.000000   1.000000
    207         -9.070023       -9.057081   1.000000   1.000000
    208         -9.058531       -9.045567   1.000000   1.000000
    209         -8.902092       -8.901817   1.000000   1.000000
    210         -8.892788       -8.892389   1.000000   1.000000
    211         -8.826813       -8.825092   1.000000   1.000000
    212         -8.825321       -8.814062   1.000000   1.000000
    213         -8.798028       -8.785451   1.000000   1.000000
    214         -8.797341       -8.778816   1.000000   1.000000
    215         -8.791216       -8.776599   1.000000   1.000000
    216         -8.754659       -8.738402   1.000000   1.000000
    217         -8.698846       -8.697852   1.000000   1.000000
    218         -8.697268       -8.694839   1.000000   1.000000
    219         -8.660985       -8.657875   1.000000   1.000000
    220         -8.646662       -8.638963   1.000000   1.000000
    221         -8.643287       -8.638424   1.000000   1.000000
    222         -8.618731       -8.615903   1.000000   1.000000
    223         -8.586778       -8.576207   1.000000   1.000000
    224         -8.575339       -8.565192   1.000000   1.000000
    225         -8.352715       -8.349107   1.000000   1.000000
    226         -8.340218       -8.339372   1.000000   1.000000
    227         -8.323441       -8.308273   1.000000   1.000000
    228         -8.312399       -8.295132   1.000000   1.000000
    229         -8.282545       -8.272166   1.000000   1.000000
    230         -8.252727       -8.241672   1.000000   1.000000
    231         -8.233744       -8.225903   1.000000   1.000000
    232         -8.215639       -8.204923   1.000000   1.000000
    233         -7.904796       -7.864713   1.000000   1.000000
    234         -7.890925       -7.860659   1.000000   1.000000
    235         -7.858971       -7.844780   1.000000   1.000000
    236         -7.857683       -7.835307   1.000000   1.000000
    237         -7.837889       -7.812879   1.000000   1.000000
    238         -7.814174       -7.808537   1.000000   1.000000
    239         -7.807664       -7.802208   1.000000   1.000000
    240         -7.806402       -7.794879   1.000000   1.000000
    241         -7.798154       -7.760400   1.000000   1.000000
    242         -7.774962       -7.756262   1.000000   1.000000
    243         -7.768824       -7.749584   1.000000   1.000000
    244         -7.756902       -7.744180   1.000000   1.000000
    245         -7.749608       -7.719308   1.000000   1.000000
    246         -7.729352       -7.716702   1.000000   1.000000
    247         -7.722541       -7.710557   1.000000   1.000000
    248         -7.714150       -7.697902   1.000000   1.000000
    249         -7.414834       -7.414478   1.000000   1.000000
    250         -7.389048       -7.388586   1.000000   1.000000
    251         -7.371931       -7.370411   1.000000   1.000000
    252         -7.358243       -7.349460   1.000000   1.000000
    253         -7.349950       -7.339851   1.000000   1.000000
    254         -7.347795       -7.334452   1.000000   1.000000
    255         -7.295983       -7.277777   1.000000   1.000000
    256         -7.292794       -7.276439   1.000000   1.000000
    257         -7.145689       -7.116595   1.000000   1.000000
    258         -7.110364       -7.106552   1.000000   1.000000
    259         -7.107669       -7.093290   1.000000   1.000000
    260         -7.088689       -7.048118   1.000000   1.000000
    261         -7.059104       -7.040345   1.000000   1.000000
    262         -7.046288       -7.029950   1.000000   1.000000
    263         -7.037361       -7.024642   1.000000   1.000000
    264         -7.007336       -7.002486   1.000000   1.000000
    265         -6.989518       -6.979143   1.000000   1.000000
    266         -6.986518       -6.976421   1.000000   1.000000
    267         -6.978597       -6.965945   1.000000   1.000000
    268         -6.977347       -6.951345   1.000000   1.000000
    269         -6.968002       -6.945597   1.000000   1.000000
    270         -6.952941       -6.944150   1.000000   1.000000
    271         -6.951851       -6.938157   1.000000   1.000000
    272         -6.942008       -6.931951   1.000000   1.000000
    273         -6.931572       -6.902537   1.000000   1.000000
    274         -6.931030       -6.883595   1.000000   1.000000
    275         -6.875740       -6.858960   1.000000   1.000000
    276         -6.853534       -6.844798   1.000000   1.000000
    277         -6.849539       -6.835394   1.000000   1.000000
    278         -6.835287       -6.803821   1.000000   1.000000
    279         -6.829888       -6.786867   1.000000   1.000000
    280         -6.811459       -6.781012   1.000000   1.000000
    281         -6.797033       -6.776233   1.000000   1.000000
    282         -6.778496       -6.761551   1.000000   1.000000
    283         -6.768230       -6.730844   1.000000   1.000000
    284         -6.755668       -6.714354   1.000000   1.000000
    285         -6.707789       -6.692668   1.000000   1.000000
    286         -6.700224       -6.692633   1.000000   1.000000
    287         -6.695465       -6.681771   1.000000   1.000000
    288         -6.679759       -6.674350   1.000000   1.000000
    289         -6.665811       -6.658660   1.000000   1.000000
    290         -6.643884       -6.636711   1.000000   1.000000
    291         -6.613110       -6.606559   1.000000   1.000000
    292         -6.604181       -6.600148   1.000000   1.000000
    293         -6.593068       -6.564039   1.000000   1.000000
    294         -6.579639       -6.563779   1.000000   1.000000
    295         -6.546353       -6.538527   1.000000   1.000000
    296         -6.532362       -6.531661   1.000000   1.000000
    297         -6.522173       -6.513332   1.000000   1.000000
    298         -6.514635       -6.507790   1.000000   1.000000
    299         -6.496684       -6.494086   1.000000   1.000000
    300         -6.474377       -6.468482   1.000000   1.000000
    301         -6.416770       -6.415917   1.000000   1.000000
    302         -6.412463       -6.410916   1.000000   1.000000
    303         -6.402512       -6.399635   1.000000   1.000000
    304         -6.396774       -6.394169   1.000000   1.000000
    305         -6.365791       -6.364190   1.000000   1.000000
    306         -6.349572       -6.348624   1.000000   1.000000
    307         -6.334031       -6.332919   1.000000   1.000000
    308         -6.325632       -6.325367   1.000000   1.000000
    309         -6.321521       -6.316921   1.000000   1.000000
    310         -6.317017       -6.314849   1.000000   1.000000
    311         -6.299496       -6.298031   1.000000   1.000000
    312         -6.288605       -6.285281   1.000000   1.000000
    313         -6.284236       -6.283354   1.000000   1.000000
    314         -6.263746       -6.262458   1.000000   1.000000
    315         -6.263476       -6.258931   1.000000   1.000000
    316         -6.261727       -6.256824   1.000000   1.000000
    317         -6.259338       -6.247805   1.000000   1.000000
    318         -6.238153       -6.236614   1.000000   1.000000
    319         -6.236158       -6.222081   1.000000   1.000000
    320         -6.224227       -6.218853   1.000000   1.000000
    321         -6.208430       -6.194059   1.000000   1.000000
    322         -6.196067       -6.189782   1.000000   1.000000
    323         -6.187132       -6.180081   1.000000   1.000000
    324         -6.176108       -6.172310   1.000000   1.000000
    325         -6.171300       -6.155846   1.000000   1.000000
    326         -6.158213       -6.149921   1.000000   1.000000
    327         -6.152924       -6.146769   1.000000   1.000000
    328         -6.137732       -6.134679   1.000000   1.000000
    329         -6.130326       -6.121833   1.000000   1.000000
    330         -6.120807       -6.116091   1.000000   1.000000
    331         -6.116818       -6.113446   1.000000   1.000000
    332         -6.098649       -6.094815   1.000000   1.000000
    333         -6.090319       -6.086369   1.000000   1.000000
    334         -6.084699       -6.071914   1.000000   1.000000
    335         -6.075108       -6.069977   1.000000   1.000000
    336         -6.072788       -6.068264   1.000000   1.000000
    337         -6.059064       -6.053922   1.000000   1.000000
    338         -6.050416       -6.033869   1.000000   1.000000
    339         -6.047436       -6.028615   1.000000   1.000000
    340         -6.036840       -6.011482   1.000000   1.000000
    341         -6.036691       -5.980447   1.000000   1.000000
    342         -6.011221       -5.956558   1.000000   1.000000
    343         -6.000420       -5.937996   1.000000   1.000000
    344         -5.959716       -5.894384   1.000000   1.000000
    345         -5.923359       -5.883049   1.000000   1.000000
    346         -5.878382       -5.862708   1.000000   1.000000
    347         -5.865445       -5.844763   1.000000   1.000000
    348         -5.859747       -5.835416   1.000000   1.000000
    349         -5.808509       -5.793774   1.000000   1.000000
    350         -5.781047       -5.775401   1.000000   1.000000
    351         -5.777591       -5.772214   1.000000   1.000000
    352         -5.770703       -5.768901   1.000000   1.000000
    353         -5.756522       -5.750685   1.000000   1.000000
    354         -5.752172       -5.740818   1.000000   1.000000
    355         -5.692535       -5.689600   1.000000   1.000000
    356         -5.671090       -5.667067   1.000000   1.000000
    357         -5.635154       -5.618988   1.000000   1.000000
    358         -5.611412       -5.600647   1.000000   1.000000
    359         -5.586374       -5.582868   1.000000   1.000000
    360         -5.557502       -5.556689   1.000000   1.000000
    361         -5.435423       -5.425670   1.000000   1.000000
    362         -5.428189       -5.403453   1.000000   1.000000
    363         -5.422507       -5.389350   1.000000   1.000000
    364         -5.397832       -5.343673   1.000000   1.000000
    365         -5.385456       -5.339076   1.000000   1.000000
    366         -5.370213       -5.319434   1.000000   1.000000
    367         -5.360551       -5.301412   1.000000   1.000000
    368         -5.323090       -5.297892   1.000000   1.000000
    369         -5.302649       -5.293011   1.000000   1.000000
    370         -5.289110       -5.266717   1.000000   1.000000
    371         -5.277979       -5.262613   1.000000   1.000000
    372         -5.268426       -5.255355   1.000000   1.000000
    373         -5.260613       -5.248276   1.000000   1.000000
    374         -5.246453       -5.234801   1.000000   1.000000
    375         -5.240121       -5.218157   1.000000   1.000000
    376         -5.228067       -5.208764   1.000000   1.000000
    377         -5.225748       -5.204698   1.000000   1.000000
    378         -5.212076       -5.199499   1.000000   1.000000
    379         -5.198601       -5.183796   1.000000   1.000000
    380         -5.186613       -5.182929   1.000000   1.000000
    381         -5.170478       -5.163978   1.000000   1.000000
    382         -5.163453       -5.159473   1.000000   1.000000
    383         -5.139626       -5.132652   1.000000   1.000000
    384         -5.124842       -5.114976   1.000000   1.000000
    385         -5.117496       -5.110009   1.000000   1.000000
    386         -5.116045       -5.109930   1.000000   1.000000
    387         -5.095241       -5.082192   1.000000   1.000000
    388         -5.091239       -5.080977   1.000000   1.000000
    389         -5.078566       -5.069913   1.000000   1.000000
    390         -5.066014       -5.057984   1.000000   1.000000
    391         -5.049256       -5.027757   1.000000   1.000000
    392         -5.009237       -5.001578   1.000000   1.000000
    393         -4.923660       -4.911389   1.000000   1.000000
    394         -4.909834       -4.885083   1.000000   1.000000
    395         -4.903331       -4.879477   1.000000   1.000000
    396         -4.886141       -4.866697   1.000000   1.000000
    397         -4.863051       -4.858371   1.000000   1.000000
    398         -4.848841       -4.833939   1.000000   1.000000
    399         -4.837272       -4.815043   1.000000   1.000000
    400         -4.802922       -4.791560   1.000000   1.000000
    401         -4.801402       -4.790088   1.000000   1.000000
    402         -4.794397       -4.786545   1.000000   1.000000
    403         -4.789347       -4.767065   1.000000   1.000000
    404         -4.784580       -4.763595   1.000000   1.000000
    405         -4.771406       -4.757717   1.000000   1.000000
    406         -4.769998       -4.744111   1.000000   1.000000
    407         -4.750137       -4.742237   1.000000   1.000000
    408         -4.745365       -4.727893   1.000000   1.000000
    409         -4.732714       -4.725919   1.000000   1.000000
    410         -4.726613       -4.718991   1.000000   1.000000
    411         -4.722374       -4.707710   1.000000   1.000000
    412         -4.714521       -4.699903   1.000000   1.000000
    413         -4.709648       -4.696965   1.000000   1.000000
    414         -4.707789       -4.688386   1.000000   1.000000
    415         -4.696035       -4.678779   1.000000   1.000000
    416         -4.677465       -4.670088   1.000000   1.000000
    417         -4.674490       -4.662170   1.000000   1.000000
    418         -4.664961       -4.641651   1.000000   1.000000
    419         -4.646088       -4.632631   1.000000   1.000000
    420         -4.644476       -4.611173   1.000000   1.000000
    421         -4.619006       -4.607060   1.000000   1.000000
    422         -4.611295       -4.591926   1.000000   1.000000
    423         -4.610642       -4.590464   1.000000   1.000000
    424         -4.591522       -4.584050   1.000000   1.000000
    425         -4.591164       -4.577558   1.000000   1.000000
    426         -4.584434       -4.576332   1.000000   1.000000
    427         -4.578966       -4.565581   1.000000   1.000000
    428         -4.567475       -4.546800   1.000000   1.000000
    429         -4.538366       -4.521372   1.000000   1.000000
    430         -4.535990       -4.514852   1.000000   1.000000
    431         -4.520906       -4.514810   1.000000   1.000000
    432         -4.513378       -4.508469   1.000000   1.000000
    433         -4.510036       -4.493793   1.000000   1.000000
    434         -4.498208       -4.477336   1.000000   1.000000
    435         -4.489948       -4.475573   1.000000   1.000000
    436         -4.465956       -4.452565   1.000000   1.000000
    437         -4.453096       -4.436396   1.000000   1.000000
    438         -4.420531       -4.406829   1.000000   1.000000
    439         -4.399411       -4.391308   1.000000   1.000000
    440         -4.382132       -4.378910   1.000000   1.000000
    441         -4.380701       -4.369793   1.000000   1.000000
    442         -4.356366       -4.353924   1.000000   1.000000
    443         -4.350745       -4.341412   1.000000   1.000000
    444         -4.341215       -4.334866   1.000000   1.000000
    445         -4.324207       -4.307781   1.000000   1.000000
    446         -4.308781       -4.304068   1.000000   1.000000
    447         -4.303950       -4.300262   1.000000   1.000000
    448         -4.302127       -4.290956   1.000000   1.000000
    449         -4.292930       -4.241268   1.000000   1.000000
    450         -4.271249       -4.233752   1.000000   1.000000
    451         -4.247957       -4.211330   1.000000   1.000000
    452         -4.236463       -4.208310   1.000000   1.000000
    453         -4.223169       -4.196459   1.000000   1.000000
    454         -4.216003       -4.196282   1.000000   1.000000
    455         -4.198734       -4.147613   1.000000   1.000000
    456         -4.195380       -4.145080   1.000000   1.000000
    457         -4.158244       -4.110116   1.000000   1.000000
    458         -4.152126       -4.109884   1.000000   1.000000
    459         -4.116697       -3.990836   1.000000   1.000000
    460         -4.111554       -3.931485   1.000000   1.000000
    461         -4.009894       -3.921713   1.000000   1.000000
    462         -4.006450       -3.916211   1.000000   1.000000
    463         -4.003796       -3.912808   1.000000   1.000000
    464         -3.983082       -3.909561   1.000000   1.000000